# Time 	 x_position	  y_position	 x_velocit	 y_velocity
0.000000000000e+00 	 1.000000000000e+00 	  0.000000000000e+00 	  0.000000000000e+00 	  1.000000014901e-01  
2.500000000000e-01 	 9.791441559792e-01 	  2.482519112527e-02 	  -1.670248657465e-01 	 9.789519011974e-02 
5.000000000000e-01 	 9.163138270378e-01 	  4.857599362731e-02 	  -3.361116945744e-01 	 9.131465852261e-02 
7.500000000000e-01 	 8.107905387878e-01 	  7.003933936357e-02 	  -5.086911320686e-01 	 7.939328998327e-02 
1.000000000000e+00 	 6.617251038551e-01 	  8.769246935844e-02 	  -6.839261054993e-01 	 6.048478931189e-02 
1.250000000000e+00 	 4.692089259624e-01 	  9.948839247227e-02 	  -8.538280725479e-01 	 3.208143636584e-02 
1.500000000000e+00 	 2.373905181885e-01 	  1.027459651232e-01 	  -9.914314746857e-01 	 -7.870331406593e-03 
1.750000000000e+00 	 -1.922491006553e-02 	  9.488741308451e-02 	  -1.042633414268e+00 	 -5.519460514188e-02 
2.000000000000e+00 	 -2.736204564571e-01 	  7.574541866779e-02 	  -9.746046662331e-01 	 -9.563944488764e-02 
2.250000000000e+00 	 -4.999483227730e-01 	  4.848755896091e-02 	  -8.279913067818e-01 	 -1.196962520480e-01 
2.500000000000e+00 	 -6.855147480965e-01 	  1.709130220115e-02 	  -6.547912359238e-01 	 -1.295338571072e-01 
2.750000000000e+00 	 -8.271624445915e-01 	  -1.549033634365e-02 	  -4.787317812443e-01 	 -1.298463791609e-01 
3.000000000000e+00 	 -9.252018928528e-01 	  -4.730031266809e-02 	  -3.063001334667e-01 	 -1.237311437726e-01 
3.250000000000e+00 	 -9.806435108185e-01 	  -7.695474475622e-02 	  -1.377739608288e-01 	 -1.127733662724e-01 
3.500000000000e+00 	 -9.942804574966e-01 	  -1.033375337720e-01 	  2.846855856478e-02 	 -9.760442376137e-02 
3.750000000000e+00 	 -9.664244651794e-01 	  -1.254068017006e-01 	  1.945235729218e-01 	 -7.821965962648e-02 
4.000000000000e+00 	 -8.968663811684e-01 	  -1.420530974865e-01 	  3.623781204224e-01 	 -5.408938601613e-02 
4.250000000000e+00 	 -7.849784493446e-01 	  -1.519683152437e-01 	  5.332223176956e-01 	 -2.414697967470e-02 
4.500000000000e+00 	 -6.301034688950e-01 	  -1.535078883171e-01 	  7.055889964104e-01 	 1.321368012577e-02 
4.750000000000e+00 	 -4.327864646912e-01 	  -1.445980966091e-01 	  8.698977828026e-01 	 5.961078777909e-02 
5.000000000000e+00 	 -1.982244700193e-01 	  -1.230163946748e-01 	  9.960892200470e-01 	 1.137613952160e-01 
5.250000000000e+00 	 5.738254636526e-02 	  -8.794646710157e-02 	  1.029362797737e+00 	 1.647315919399e-01 
5.500000000000e+00 	 3.063915669918e-01 	  -4.241784662008e-02 	  9.460757374763e-01 	 1.953319609165e-01 
5.750000000000e+00 	 5.246135592461e-01 	  7.693474646658e-03 	  7.929555773735e-01 	 2.022017091513e-01 
6.000000000000e+00 	 7.012220025063e-01 	  5.736499279737e-02 	  6.187418699265e-01 	 1.931923627853e-01 
6.250000000000e+00 	 8.339810371399e-01 	  1.035330817103e-01 	  4.438863992691e-01 	 1.749839484692e-01 
6.500000000000e+00 	 9.235517978668e-01 	  1.443816274405e-01 	  2.734769582748e-01 	 1.510053724051e-01 
6.750000000000e+00 	 9.710768461227e-01 	  1.786776930094e-01 	  1.073016449809e-01 	 1.226973533630e-01 
7.000000000000e+00 	 9.774092435837e-01 	  2.054021507502e-01 	  -5.640444904566e-02 	 9.043344110250e-02 
7.250000000000e+00 	 9.429055452347e-01 	  2.235427051783e-01 	  -2.197317332029e-01 	 5.393602699041e-02 
7.500000000000e+00 	 8.674161434174e-01 	  2.319532930851e-01 	  -3.845526278019e-01 	 1.242502685636e-02 
7.750000000000e+00 	 7.504205107689e-01 	  2.292354255915e-01 	  -5.517699122429e-01 	 -3.532610833645e-02 
8.000000000000e+00 	 5.914834737778e-01 	  2.136460542679e-01 	  -7.192241549492e-01 	 -9.076148271561e-02 
8.250000000000e+00 	 3.916502296925e-01 	  1.831621974707e-01 	  -8.756871223450e-01 	 -1.542652696371e-01 
8.500000000000e+00 	 1.571998298168e-01 	  1.362318247557e-01 	  -9.882861971855e-01 	 -2.205046266317e-01 
8.750000000000e+00 	 -9.416262805462e-02 	  7.415484637022e-02 	  -1.003105282784e+00 	 -2.717007696629e-01 
9.000000000000e+00 	 -3.347564935684e-01 	  3.245781175792e-03 	  -9.065845012665e-01 	 -2.898340225220e-01 
9.250000000000e+00 	 -5.424607992172e-01 	  -6.828233599663e-02 	  -7.495586872101e-01 	 -2.786316573620e-01 
9.500000000000e+00 	 -7.083113193512e-01 	  -1.347007453442e-01 	  -5.765960216522e-01 	 -2.507831454277e-01 
9.750000000000e+00 	 -8.309104442596e-01 	  -1.929724514484e-01 	  -4.049332737923e-01 	 -2.143496572971e-01 
1.000000000000e+01 	 -9.112173318863e-01 	  -2.414617091417e-01 	  -2.383814305067e-01 	 -1.728723347187e-01 
1.025000000000e+01 	 -9.504783749580e-01 	  -2.790936529636e-01 	  -7.631319016218e-02 	 -1.275807321072e-01 
1.050000000000e+01 	 -9.495931267738e-01 	  -3.049440383911e-01 	  8.313058316708e-02 	 -7.857465744019e-02 
1.075000000000e+01 	 -9.089604616165e-01 	  -3.180268406868e-01 	  2.419949620962e-01 	 -2.530711144209e-02 
1.100000000000e+01 	 -8.284974694252e-01 	  -3.171587884426e-01 	  4.019991457462e-01 	 3.323316201568e-02 
1.125000000000e+01 	 -7.078080177307e-01 	  -3.008586466312e-01 	  5.637150406837e-01 	 9.838078916073e-02 
1.150000000000e+01 	 -5.467082262039e-01 	  -2.673150002956e-01 	  7.242398262024e-01 	 1.712735444307e-01 
1.175000000000e+01 	 -3.467831611633e-01 	  -2.146483212709e-01 	  8.706873655319e-01 	 2.506722211838e-01 
1.200000000000e+01 	 -1.153956875205e-01 	  -1.422127485275e-01 	  9.678218364716e-01 	 3.264952003956e-01 
1.225000000000e+01 	 1.285155713558e-01 	  -5.375476554036e-02 	  9.643211960793e-01 	 3.744292557240e-01 
1.250000000000e+01 	 3.578432500362e-01 	  4.115861654282e-02 	  8.570131063461e-01 	 3.778965473175e-01 
1.275000000000e+01 	 5.528490543365e-01 	  1.324083805084e-01 	  6.987317204475e-01 	 3.481439650059e-01 
1.300000000000e+01 	 7.063687443733e-01 	  2.138714492321e-01 	  5.292337536812e-01 	 3.017413318157e-01 
1.325000000000e+01 	 8.177489042282e-01 	  2.826500833035e-01 	  3.626902997494e-01 	 2.475905418396e-01 
1.350000000000e+01 	 8.881938457489e-01 	  3.373174071312e-01 	  2.017735838890e-01 	 1.891637593508e-01 
1.375000000000e+01 	 9.190268516541e-01 	  3.769592046738e-01 	  4.551734402776e-02 	 1.274287551641e-01 
1.400000000000e+01 	 9.111823439598e-01 	  4.007423520088e-01 	  -1.079831570387e-01 	 6.220353767276e-02 
1.425000000000e+01 	 8.651003241539e-01 	  4.077036678791e-01 	  -2.606891393661e-01 	 -7.319148164243e-03 
1.450000000000e+01 	 7.807728648186e-01 	  3.966233432293e-01 	  -4.141297340393e-01 	 -8.235622942448e-02 
1.475000000000e+01 	 6.579459905624e-01 	  3.659484386444e-01 	  -5.685071349144e-01 	 -1.642877161503e-01 
1.500000000000e+01 	 4.967143237591e-01 	  3.138366937637e-01 	  -7.201395630836e-01 	 -2.537771165371e-01 
1.525000000000e+01 	 2.992326915264e-01 	  2.386606484652e-01 	  -8.545318841934e-01 	 -3.475308120251e-01 
1.550000000000e+01 	 7.391025125980e-02 	  1.409357190132e-01 	  -9.347195029259e-01 	 -4.300787448883e-01 
1.575000000000e+01 	 -1.594337224960e-01 	  2.714039757848e-02 	  -9.137102365494e-01 	 -4.713310003281e-01 
1.600000000000e+01 	 -3.748697638512e-01 	  -9.006299078465e-02 	  -7.983837723732e-01 	 -4.584177434444e-01 
1.625000000000e+01 	 -5.552535057068e-01 	  -1.991165280342e-01 	  -6.414833068848e-01 	 -4.100308120251e-01 
1.650000000000e+01 	 -6.951117515564e-01 	  -2.937795817852e-01 	  -4.775818586349e-01 	 -3.456199765205e-01 
1.675000000000e+01 	 -7.944351434708e-01 	  -3.713825047016e-01 	  -3.180013000965e-01 	 -2.744599580765e-01 
1.700000000000e+01 	 -8.546213507652e-01 	  -4.307259321213e-01 	  -1.644218564034e-01 	 -1.998091489077e-01 
1.725000000000e+01 	 -8.770458102226e-01 	  -4.710549116135e-01 	  -1.561483275145e-02 	 -1.223377138376e-01 
1.750000000000e+01 	 -8.626677989960e-01 	  -4.916223585606e-01 	  1.303226500750e-01 	 -4.158117622137e-02 
1.775000000000e+01 	 -8.119688630104e-01 	  -4.914846420288e-01 	  2.752308845520e-01 	 4.351343214512e-02 
1.800000000000e+01 	 -7.250251770020e-01 	  -4.693877696991e-01 	  4.204150140285e-01 	 1.343368142843e-01 
1.825000000000e+01 	 -6.017424464226e-01 	  -4.237217009068e-01 	  5.656750798225e-01 	 2.322403788567e-01 
1.850000000000e+01 	 -4.425181448460e-01 	  -3.526588678360e-01 	  7.065352201462e-01 	 3.372209370136e-01 
1.875000000000e+01 	 -2.500932812691e-01 	  -2.549487054348e-01 	  8.270131945610e-01 	 4.434643983841e-01 
1.900000000000e+01 	 -3.383893147111e-02 	  -1.325360983610e-01 	  8.892405033112e-01 	 5.295860171318e-01 
1.925000000000e+01 	 1.859728395939e-01 	  5.149244330823e-03 	  8.521927595139e-01 	 5.609443187714e-01 
1.950000000000e+01 	 3.851589560509e-01 	  1.426282525063e-01 	  7.318339347839e-01 	 5.304570198059e-01 
1.975000000000e+01 	 5.492751002312e-01 	  2.673827707767e-01 	  5.788819193840e-01 	 4.637243449688e-01 
2.000000000000e+01 	 6.743947863579e-01 	  3.732911646366e-01 	  4.225998222828e-01 	 3.820931017399e-01 
2.025000000000e+01 	 7.610504627228e-01 	  4.579783380032e-01 	  2.717237174511e-01 	 2.948190867901e-01 
2.050000000000e+01 	 8.107838630676e-01 	  5.204821825027e-01 	  1.270917654037e-01 	 2.048357427120e-01 
2.075000000000e+01 	 8.250000476837e-01 	  5.602024197578e-01 	  -1.271212007850e-02 	 1.124934256077e-01 
2.100000000000e+01 	 8.046751022339e-01 	  5.764718055725e-01 	  -1.495434939861e-01 	 1.705130189657e-02 
2.125000000000e+01 	 7.503339052200e-01 	  5.683636069298e-01 	  -2.850870192051e-01 	 -8.276954293251e-02 
2.150000000000e+01 	 6.621466279030e-01 	  5.345938205719e-01 	  -4.203933477402e-01 	 -1.884952634573e-01 
2.175000000000e+01 	 5.401954650879e-01 	  4.735139906406e-01 	  -5.548365712166e-01 	 -3.013629317284e-01 
2.200000000000e+01 	 3.852004408836e-01 	  3.833651542664e-01 	  -6.831576824188e-01 	 -4.204857647419e-01 
2.225000000000e+01 	 2.004878818989e-01 	  2.634142935276e-01 	  -7.880973219872e-01 	 -5.370386838913e-01 
2.250000000000e+01 	 -3.747399663553e-03 	  1.173079833388e-01 	  -8.318911194801e-01 	 -6.233718991280e-01 
2.275000000000e+01 	 -2.072714716196e-01 	  -4.244040697813e-02 	  -7.808846831322e-01 	 -6.419650316238e-01 
2.300000000000e+01 	 -3.881514072418e-01 	  -1.979237645864e-01 	  -6.585913300514e-01 	 -5.932449102402e-01 
2.325000000000e+01 	 -5.346481800079e-01 	  -3.361310064793e-01 	  -5.120381712914e-01 	 -5.088000893593e-01 
2.350000000000e+01 	 -6.442130804062e-01 	  -4.512532055378e-01 	  -3.652653992176e-01 	 -4.109571874142e-01 
2.375000000000e+01 	 -7.178193926811e-01 	  -5.412558317184e-01 	  -2.247160971165e-01 	 -3.086369037628e-01 
2.400000000000e+01 	 -7.571069598198e-01 	  -6.054162383080e-01 	  -9.053485095501e-02 	 -2.043671905994e-01 
2.425000000000e+01 	 -7.634906172752e-01 	  -6.432812809944e-01 	  3.880994766951e-02 	 -9.816854447126e-02 
2.450000000000e+01 	 -7.379572391510e-01 	  -6.542570590973e-01 	  1.650837212801e-01 	 1.096375379711e-02 
2.475000000000e+01 	 -6.810780167580e-01 	  -6.374316811562e-01 	  2.897835373878e-01 	 1.245097965002e-01 
2.500000000000e+01 	 -5.931273102760e-01 	  -5.914975404739e-01 	  4.136796593666e-01 	 2.440863996744e-01 
2.525000000000e+01 	 -4.743792712688e-01 	  -5.147908926010e-01 	  5.357072949409e-01 	 3.707186579704e-01 
2.550000000000e+01 	 -3.258899748325e-01 	  -4.056839048862e-01 	  6.498684287071e-01 	 5.023955106735e-01 
2.575000000000e+01 	 -1.515482068062e-01 	  -2.641165554523e-01 	  7.379389405251e-01 	 6.267821788788e-01 
2.600000000000e+01 	 3.782494366169e-02 	  -9.570149332285e-02 	  7.634243965149e-01 	 7.098562121391e-01 
2.625000000000e+01 	 2.225696295500e-01 	  8.393654227257e-02 	  7.010681629181e-01 	 7.132732272148e-01 
2.650000000000e+01 	 3.834168314934e-01 	  2.549430131912e-01 	  5.799490213394e-01 	 6.461892724037e-01 
2.675000000000e+01 	 5.112468004227e-01 	  4.042493104935e-01 	  4.420870244503e-01 	 5.449785590172e-01 
2.700000000000e+01 	 6.047047376633e-01 	  5.265101790428e-01 	  3.065603673458e-01 	 4.321315586567e-01 
2.725000000000e+01 	 6.651083230972e-01 	  6.200594305992e-01 	  1.778257191181e-01 	 3.159894347191e-01 
2.750000000000e+01 	 6.941534876823e-01 	  6.844094395638e-01 	  5.547740682960e-02 	 1.986215561628e-01 
2.775000000000e+01 	 6.932479143143e-01 	  7.192447185516e-01 	  -6.206398829818e-02 	 7.971941679716e-02 
2.800000000000e+01 	 6.633849143982e-01 	  7.240378856659e-01 	  -1.764341741800e-01 	 -4.196746274829e-02 
2.825000000000e+01 	 6.051862239838e-01 	  6.978909969330e-01 	  -2.889142036438e-01 	 -1.680908352137e-01 
2.850000000000e+01 	 5.190407037735e-01 	  6.394816040993e-01 	  -3.999736905098e-01 	 -3.003070354462e-01 
2.875000000000e+01 	 4.054277241230e-01 	  5.471582412720e-01 	  -5.081096887589e-01 	 -4.393196702003e-01 
2.900000000000e+01 	 2.657445371151e-01 	  4.194957017899e-01 	  -6.066696047783e-01 	 -5.817308425903e-01 
2.925000000000e+01 	 1.043929010630e-01 	  2.572748064995e-01 	  -6.768926382065e-01 	 -7.112115025520e-01 
2.950000000000e+01 	 -6.743984669447e-02 	  6.831652671099e-02 	  -6.848313212395e-01 	 -7.875678539276e-01 
2.975000000000e+01 	 -2.312254458666e-01 	  -1.287335604429e-01 	  -6.141567826271e-01 	 -7.739549279213e-01 
3.000000000000e+01 	 -3.706628382206e-01 	  -3.126213848591e-01 	  -4.972396790981e-01 	 -6.888783574104e-01 
3.025000000000e+01 	 -4.790877103806e-01 	  -4.706080853939e-01 	  -3.701698184013e-01 	 -5.721250772476e-01 
3.050000000000e+01 	 -5.561501979828e-01 	  -5.979218482971e-01 	  -2.474558204412e-01 	 -4.456568658352e-01 
3.075000000000e+01 	 -6.034215688705e-01 	  -6.932768821716e-01 	  -1.318757534027e-01 	 -3.170572519302e-01 
3.100000000000e+01 	 -6.226166486740e-01 	  -7.564108371735e-01 	  -2.260918356478e-02 	 -1.879077851772e-01 
3.125000000000e+01 	 -6.151217818260e-01 	  -7.871348261833e-01 	  8.190861344337e-02 	 -5.758127197623e-02 
3.150000000000e+01 	 -5.819345116615e-01 	  -7.849812507629e-01 	  1.831478327513e-01 	 7.539520412683e-02 
3.175000000000e+01 	 -5.237320661545e-01 	  -7.490665912628e-01 	  2.821490764618e-01 	 2.128110975027e-01 
3.200000000000e+01 	 -4.410277009010e-01 	  -6.780648827553e-01 	  3.790679574013e-01 	 3.563049435616e-01 
3.225000000000e+01 	 -3.345162570477e-01 	  -5.703691840172e-01 	  4.719808995724e-01 	 5.061377286911e-01 
3.250000000000e+01 	 -2.059307843447e-01 	  -4.248371720314e-01 	  5.537138581276e-01 	 6.572440266609e-01 
3.275000000000e+01 	 -6.010475009680e-02 	  -2.432674318552e-01 	  6.055228114128e-01 	 7.888594865799e-01 
3.300000000000e+01 	 9.173083305359e-02 	  -3.589241579175e-02 	  5.973246097565e-01 	 8.551865220070e-01 
3.325000000000e+01 	 2.327304333448e-01 	  1.758373826742e-01 	  5.216593742371e-01 	 8.233152627945e-01 
3.350000000000e+01 	 3.497423827648e-01 	  3.698548376560e-01 	  4.118108749390e-01 	 7.210794687271e-01 
3.375000000000e+01 	 4.383330345154e-01 	  5.340781211853e-01 	  2.974161207676e-01 	 5.902467370033e-01 
3.400000000000e+01 	 4.989701211452e-01 	  6.643807888031e-01 	  1.888971030712e-01 	 4.516914784908e-01 
3.425000000000e+01 	 5.333958268166e-01 	  7.598559856415e-01 	  8.765229582787e-02 	 3.121207952499e-01 
3.450000000000e+01 	 5.433113574982e-01 	  8.204525709152e-01 	  -7.428082637489e-03 	 1.726198345423e-01 
3.475000000000e+01 	 5.300706028938e-01 	  8.460962772369e-01 	  -9.783742576838e-02 	 3.226128220558e-02 
3.500000000000e+01 	 4.946746230125e-01 	  8.363732099533e-01 	  -1.848489046097e-01 	 -1.106223985553e-01 
3.525000000000e+01 	 4.378618299961e-01 	  7.904160618782e-01 	  -2.692429125309e-01 	 -2.579202353954e-01 
3.550000000000e+01 	 3.602789342403e-01 	  7.069096565247e-01 	  -3.508558571339e-01 	 -4.111897945404e-01 
3.575000000000e+01 	 2.628422975540e-01 	  5.843286514282e-01 	  -4.273811876774e-01 	 -5.701174736023e-01 
3.600000000000e+01 	 1.476023942232e-01 	  4.219017028809e-01 	  -4.913142025471e-01 	 -7.276772856712e-01 
3.625000000000e+01 	 1.970656402409e-02 	  2.226262688637e-01 	  -5.246093273163e-01 	 -8.583083748817e-01 
3.650000000000e+01 	 -1.099511235952e-01 	  -7.077273912728e-04 	  -5.023126006126e-01 	 -9.115823507309e-01 
3.675000000000e+01 	 -2.267224341631e-01 	  -2.241855412722e-01 	  -4.251428842545e-01 	 -8.608852028847e-01 
3.700000000000e+01 	 -3.206593096256e-01 	  -4.255211651325e-01 	  -3.250012099743e-01 	 -7.427342534065e-01 
3.725000000000e+01 	 -3.892906308174e-01 	  -5.935503840446e-01 	  -2.249265760183e-01 	 -5.994864702225e-01 
3.750000000000e+01 	 -4.337225258350e-01 	  -7.248303890228e-01 	  -1.317898333073e-01 	 -4.505051970482e-01 
3.775000000000e+01 	 -4.557940363884e-01 	  -8.188208341599e-01 	  -4.589225724339e-02 	 -3.015537261963e-01 
3.800000000000e+01 	 -4.571653604507e-01 	  -8.756645321846e-01 	  3.405130654573e-02 	 -1.532295644283e-01 
3.825000000000e+01 	 -4.391495585442e-01 	  -8.953892588615e-01 	  1.094126179814e-01 	 -4.330675117671e-03 
3.850000000000e+01 	 -4.027521908283e-01 	  -8.776295781136e-01 	  1.812409907579e-01 	 1.469732969999e-01 
3.875000000000e+01 	 -3.487788140774e-01 	  -8.215382099152e-01 	  2.500421702862e-01 	 3.026291728020e-01 
3.900000000000e+01 	 -2.780172526836e-01 	  -7.258275151253e-01 	  3.153378069401e-01 	 4.640447795391e-01 
3.925000000000e+01 	 -1.916061639786e-01 	  -5.890957117081e-01 	  3.745002150536e-01 	 6.301904320717e-01 
3.950000000000e+01 	 -9.187922626734e-02 	  -4.110377728939e-01 	  4.199509322643e-01 	 7.917826175690e-01 
3.975000000000e+01 	 1.586105674505e-02 	  -1.960282474756e-01 	  4.351474940777e-01 	 9.182256460190e-01 
4.000000000000e+01 	 1.214866787195e-01 	  4.051501676440e-02 	  4.013650119305e-01 	 9.558492898941e-01 
4.025000000000e+01 	 2.129941582680e-01 	  2.726691067219e-01 	  3.261965215206e-01 	 8.864217996597e-01 
4.050000000000e+01 	 2.835696935654e-01 	  4.785006940365e-01 	  2.381189167500e-01 	 7.539516091347e-01 
4.075000000000e+01 	 3.324108719826e-01 	  6.479549407959e-01 	  1.537575423717e-01 	 6.001164317131e-01 
4.100000000000e+01 	 3.610956966877e-01 	  7.782821059227e-01 	  7.698736339808e-02 	 4.424725472927e-01 
4.125000000000e+01 	 3.714954555035e-01 	  8.692871928215e-01 	  7.272929418832e-03 	 2.858155965805e-01 
4.150000000000e+01 	 3.652067780495e-01 	  9.212875366211e-01 	  -5.674478411674e-02 	 1.302784830332e-01 
4.175000000000e+01 	 3.434963822365e-01 	  9.344004988670e-01 	  -1.162723377347e-01 	 -2.558441460133e-02 
4.200000000000e+01 	 3.073764741421e-01 	  9.083048105240e-01 	  -1.721133142710e-01 	 -1.837311834097e-01 
4.225000000000e+01 	 2.577258348465e-01 	  8.421788811684e-01 	  -2.244903296232e-01 	 -3.461213111877e-01 
4.250000000000e+01 	 1.954789757729e-01 	  7.347824573517e-01 	  -2.726259529591e-01 	 -5.139392614365e-01 
4.275000000000e+01 	 1.219911128283e-01 	  5.848835110664e-01 	  -3.136615455151e-01 	 -6.852904558182e-01 
4.300000000000e+01 	 3.982624784112e-02 	  3.927441537380e-01 	  -3.402764499187e-01 	 -8.483439087868e-01 
4.325000000000e+01 	 -4.576094821095e-02 	  1.642830818892e-01 	  -3.383410274982e-01 	 -9.674015641212e-01 
4.350000000000e+01 	 -1.258711218834e-01 	  -8.247599005699e-02 	  -2.961716949940e-01 	 -9.873300790787e-01 
4.375000000000e+01 	 -1.914979070425e-01 	  -3.201557695866e-01 	  -2.263977229595e-01 	 -8.999018669128e-01 
4.400000000000e+01 	 -2.387801706791e-01 	  -5.276970863342e-01 	  -1.524222046137e-01 	 -7.549976706505e-01 
4.425000000000e+01 	 -2.682810127735e-01 	  -6.962794661522e-01 	  -8.490683138371e-02 	 -5.925285816193e-01 
4.450000000000e+01 	 -2.818995714188e-01 	  -8.238319754601e-01 	  -2.527926862240e-02 	 -4.280636310577e-01 
4.475000000000e+01 	 -2.814842760563e-01 	  -9.104771614075e-01 	  2.759767323732e-02 	 -2.654426395893e-01 
4.500000000000e+01 	 -2.685506343842e-01 	  -9.566859006882e-01 	  7.506824284792e-02 	 -1.043682917953e-01 
4.525000000000e+01 	 -2.443159371614e-01 	  -9.626532793045e-01 	  1.181371882558e-01 	 5.681300908327e-02 
4.550000000000e+01 	 -2.098023146391e-01 	  -9.280993342400e-01 	  1.573458462954e-01 	 2.201491892338e-01 
4.575000000000e+01 	 -1.659673899412e-01 	  -8.522356152534e-01 	  1.926318556070e-01 	 3.875644505024e-01 
4.600000000000e+01 	 -1.138952970505e-01 	  -7.338920235634e-01 	  2.229473888874e-01 	 5.599424242973e-01 
4.625000000000e+01 	 -5.514406412840e-02 	  -5.720564126968e-01 	  2.453258931637e-01 	 7.343697547913e-01 
4.650000000000e+01 	 7.566604297608e-03 	  -3.676624596119e-01 	  2.531177997589e-01 	 8.962008357048e-01 
4.675000000000e+01 	 6.927873939276e-02 	  -1.283179372549e-01 	  2.355877608061e-01 	 1.004787802696e+00 
4.700000000000e+01 	 1.227971762419e-01 	  1.254757791758e-01 	  1.884975135326e-01 	 1.005632519722e+00 
4.725000000000e+01 	 1.623470485210e-01 	  3.655129373074e-01 	  1.272816956043e-01 	 9.015118479729e-01 
4.750000000000e+01 	 1.867437213659e-01 	  5.720575451851e-01 	  6.910198926926e-02 	 7.462850213051e-01 
4.775000000000e+01 	 1.976172626019e-01 	  7.375870943069e-01 	  1.930133625865e-02 	 5.772256851196e-01 
4.800000000000e+01 	 1.970549523830e-01 	  8.606758713722e-01 	  -2.261842973530e-02 	 4.078355729580e-01 
4.825000000000e+01 	 1.868367940187e-01 	  9.417316317558e-01 	  -5.818865075707e-02 	 2.410390079021e-01 
4.850000000000e+01 	 1.683842241764e-01 	  9.813575744629e-01 	  -8.866313099861e-02 	 7.615164667368e-02 
4.875000000000e+01 	 1.428643018007e-01 	  9.798153042793e-01 	  -1.148151904345e-01 	 -8.864898234606e-02 
4.900000000000e+01 	 1.113130599260e-01 	  9.368646740913e-01 	  -1.369129866362e-01 	 -2.554606199265e-01 
4.925000000000e+01 	 7.477179914713e-02 	  8.517602086067e-01 	  -1.546147018671e-01 	 -4.261221289635e-01 
4.950000000000e+01 	 3.447382152081e-02 	  7.234270572662e-01 	  -1.666456758976e-01 	 -6.011356711388e-01 
4.975000000000e+01 	 -7.843269966543e-03 	  5.511267185211e-01 	  -1.700924485922e-01 	 -7.764148116112e-01 
5.000000000000e+01 	 -4.940349981189e-02 	  3.365687727928e-01 	  -1.594758629799e-01 	 -9.342736005783e-01 
5.025000000000e+01 	 -8.583962172270e-02 	  8.916094899178e-02 	  -1.284571439028e-01 	 -1.029534459114e+00 
5.050000000000e+01 	 -1.121238768101e-01 	  -1.683607846498e-01 	  -8.013573288918e-02 	 -1.010635614395e+00 
5.075000000000e+01 	 -1.258136034012e-01 	  -4.076289236546e-01 	  -3.031458146870e-02 	 -8.916341066360e-01 
5.100000000000e+01 	 -1.280522644520e-01 	  -6.105907559395e-01 	  1.073308382183e-02 	 -7.283606529236e-01 
5.125000000000e+01 	 -1.212541535497e-01 	  -7.710312008858e-01 	  4.221396148205e-02 	 -5.548108220100e-01 
5.150000000000e+01 	 -1.075804829597e-01 	  -8.881220221519e-01 	  6.607200205326e-02 	 -3.824227750301e-01 
5.175000000000e+01 	 -8.870641887188e-02 	  -9.625210165977e-01 	  8.405318111181e-02 	 -2.132672667503e-01 
5.200000000000e+01 	 -6.595060229301e-02 	  -9.949424266815e-01 	  9.725794196129e-02 	 -4.632256925106e-02 
5.225000000000e+01 	 -4.043102264404e-02 	  -9.857043623924e-01 	  1.062055826187e-01 	 1.203610226512e-01 
5.250000000000e+01 	 -1.320203393698e-02 	  -9.346069097519e-01 	  1.108860149980e-01 	 2.888895869255e-01 
5.275000000000e+01 	 1.460779458284e-02 	  -8.409590721130e-01 	  1.106916144490e-01 	 4.609648883343e-01 
5.300000000000e+01 	 4.162062332034e-02 	  -7.038091421127e-01 	  1.041814163327e-01 	 6.366258263588e-01 
5.325000000000e+01 	 6.595363467932e-02 	  -5.227481126785e-01 	  8.869881927967e-02 	 8.104630708694e-01 
5.350000000000e+01 	 8.490166813135e-02 	  -3.003620505333e-01 	  6.052114441991e-02 	 9.615897536278e-01 
5.375000000000e+01 	 9.502337127924e-02 	  -4.792140051723e-02 	  1.865918934345e-02 	 1.041024565697e+00 
5.400000000000e+01 	 9.388088434935e-02 	  2.099628746510e-01 	  -2.713841386139e-02 	 1.002486705780e+00 
5.425000000000e+01 	 8.232382684946e-02 	  4.454337060452e-01 	  -6.313046813011e-02 	 8.708302974701e-01 
5.450000000000e+01 	 6.342776119709e-02 	  6.423836350441e-01 	  -8.607048541307e-02 	 7.018927931786e-01 
5.475000000000e+01 	 4.013282805681e-02 	  7.958695292473e-01 	  -9.888619929552e-02 	 5.259766578674e-01 
5.500000000000e+01 	 1.457866933197e-02 	  9.056026339531e-01 	  -1.045380234718e-01 	 3.525267243385e-01 
5.525000000000e+01 	 -1.169217936695e-02 	  9.724539518356e-01 	  -1.048347428441e-01 	 1.828382462263e-01 
5.550000000000e+01 	 -3.746865317225e-02 	  9.972284436226e-01 	  -1.006728708744e-01 	 1.560614537448e-02 
5.575000000000e+01 	 -6.167906522751e-02 	  9.802922606468e-01 	  -9.230202436447e-02 	 -1.512033194304e-01 
5.600000000000e+01 	 -8.324625343084e-02 	  9.214876890182e-01 	  -7.943490147591e-02 	 -3.196620941162e-01 
5.625000000000e+01 	 -1.009524986148e-01 	  8.201918005943e-01 	  -6.122060492635e-02 	 -4.912825524807e-01 
5.650000000000e+01 	 -1.132850274444e-01 	  6.756057739258e-01 	  -3.613167256117e-02 	 -6.655588746071e-01 
5.675000000000e+01 	 -1.182630285621e-01 	  4.877070188522e-01 	  -2.019727136940e-03 	 -8.356208801270e-01 
5.700000000000e+01 	 -1.134093254805e-01 	  2.600495219231e-01 	  4.241426289082e-02 	 -9.773132205009e-01 
5.725000000000e+01 	 -9.657678753138e-02 	  5.766900721937e-03 	  9.199465066195e-02 	 -1.038903474808e+00 
5.750000000000e+01 	 -6.826936453581e-02 	  -2.491245418787e-01 	  1.316112875938e-01 	 -9.815901517868e-01 
5.775000000000e+01 	 -3.245128691196e-02 	  -4.779197573662e-01 	  1.517935246229e-01 	 -8.398226499557e-01 
5.800000000000e+01 	 6.288420408964e-03 	  -6.666184663773e-01 	  1.560056954622e-01 	 -6.676563024521e-01 
5.825000000000e+01 	 4.471225664020e-02 	  -8.114777803421e-01 	  1.500635445118e-01 	 -4.914926886559e-01 
5.850000000000e+01 	 8.077940344810e-02 	  -9.126841425896e-01 	  1.375703066587e-01 	 -3.189043402672e-01 
5.875000000000e+01 	 1.130997985601e-01 	  -9.712848663330e-01 	  1.202723830938e-01 	 -1.504998505116e-01 
5.900000000000e+01 	 1.405712813139e-01 	  -9.881565570831e-01 	  9.882351756096e-02 	 1.525250077248e-02 
5.925000000000e+01 	 1.621644049883e-01 	  -9.637065529823e-01 	  7.319482415915e-02 	 1.804265677929e-01 
5.950000000000e+01 	 1.767750382423e-01 	  -8.978231549263e-01 	  4.282913729548e-02 	 3.470174670219e-01 
5.975000000000e+01 	 1.830966472626e-01 	  -7.899668216705e-01 	  6.664603948593e-03 	 5.162960886955e-01 
6.000000000000e+01 	 1.794969737530e-01 	  -6.395228505135e-01 	  -3.681141138077e-02 	 6.871335506439e-01 
6.025000000000e+01 	 1.639590263367e-01 	  -4.469112753868e-01 	  -8.893588185310e-02 	 8.510815501213e-01 
6.050000000000e+01 	 1.344224214554e-01 	  -2.167297750711e-01 	  -1.478499621153e-01 	 9.807730913162e-01 
6.075000000000e+01 	 9.042301028967e-02 	  3.610071912408e-02 	  -2.016378641129e-01 	 1.023099899292e+00 
6.100000000000e+01 	 3.565943241119e-02 	  2.847228348255e-01 	  -2.316702902317e-01 	 9.485878944397e-01 
6.125000000000e+01 	 -2.309245616198e-02 	  5.041603446007e-01 	  -2.345448583364e-01 	 7.994731068611e-01 
6.150000000000e+01 	 -8.014813065529e-02 	  6.825861930847e-01 	  -2.197524309158e-01 	 6.265169978142e-01 
6.175000000000e+01 	 -1.321681290865e-01 	  8.173595070839e-01 	  -1.952028274536e-01 	 4.521917998791e-01 
6.200000000000e+01 	 -1.772705167532e-01 	  9.090740680695e-01 	  -1.648256182671e-01 	 2.823553681374e-01 
6.225000000000e+01 	 -2.142303884029e-01 	  9.589177370071e-01 	  -1.302047073841e-01 	 1.170248463750e-01 
6.250000000000e+01 	 -2.420527786016e-01 	  9.678213000298e-01 	  -9.172330796719e-02 	 -4.550034552813e-02 
6.275000000000e+01 	 -2.597456276417e-01 	  9.362282752991e-01 	  -4.907184094191e-02 	 -2.072902619839e-01 
6.300000000000e+01 	 -2.661742866039e-01 	  8.640785217285e-01 	  -1.437148544937e-03 	 -3.702209293842e-01 
6.325000000000e+01 	 -2.599464356899e-01 	  7.509329319000e-01 	  5.241061747074e-02 	 -5.352711081505e-01 
6.350000000000e+01 	 -2.393325716257e-01 	  5.963929295540e-01 	  1.138440147042e-01 	 -7.006168961525e-01 
6.375000000000e+01 	 -2.023575901985e-01 	  4.013740718365e-01 	  1.830306053162e-01 	 -8.561464548111e-01 
6.400000000000e+01 	 -1.475986540318e-01 	  1.715700030327e-01 	  2.541772723198e-01 	 -9.714947938919e-01 
6.425000000000e+01 	 -7.666626572609e-02 	  -7.647465169430e-02 	  3.084008693695e-01 	 -9.938372373581e-01 
6.450000000000e+01 	 3.416784107685e-03 	  -3.156959414482e-01 	  3.258376717567e-01 	 -9.043334722519e-01 
6.475000000000e+01 	 8.347015827894e-02 	  -5.233297348022e-01 	  3.103978931904e-01 	 -7.507602572441e-01 
6.500000000000e+01 	 1.571111083031e-01 	  -6.897019743919e-01 	  2.766501605511e-01 	 -5.794137120247e-01 
6.525000000000e+01 	 2.210595160723e-01 	  -8.131572604179e-01 	  2.338747978210e-01 	 -4.089550077915e-01 
6.550000000000e+01 	 2.736366689205e-01 	  -8.946284651756e-01 	  1.860672086477e-01 	 -2.437084317207e-01 
6.575000000000e+01 	 3.137890398502e-01 	  -9.354100227356e-01 	  1.345718502998e-01 	 -8.319757133722e-02 
6.600000000000e+01 	 3.406248092651e-01 	  -9.364715218544e-01 	  7.948393374681e-02 	 7.438936829567e-02 
6.625000000000e+01 	 3.531837761402e-01 	  -8.982895612717e-01 	  2.021743729711e-02 	 2.310754954815e-01 
6.650000000000e+01 	 3.502984344959e-01 	  -8.208628296852e-01 	  -4.427615925670e-02 	 3.885766565800e-01 
6.675000000000e+01 	 3.304969668388e-01 	  -7.038706541061e-01 	  -1.153402030468e-01 	 5.475317835808e-01 
6.700000000000e+01 	 2.919824123383e-01 	  -5.471623539925e-01 	  -1.940557658672e-01 	 7.053599953651e-01 
6.725000000000e+01 	 2.329175174236e-01 	  -3.521962463856e-01 	  -2.790070772171e-01 	 8.502458930016e-01 
6.750000000000e+01 	 1.527681052685e-01 	  -1.257819831371e-01 	  -3.596861958504e-01 	 9.492287635803e-01 
6.775000000000e+01 	 5.559166520834e-02 	  1.141715198755e-01 	  -4.104650318623e-01 	 9.516326189041e-01 
6.800000000000e+01 	 -4.827606678009e-02 	  3.410668373108e-01 	  -4.127975702286e-01 	 8.498620986938e-01 
6.825000000000e+01 	 -1.477338522673e-01 	  5.347198247910e-01 	  -3.785186409950e-01 	 6.947564482689e-01 
6.850000000000e+01 	 -2.360616922379e-01 	  6.875165104866e-01 	  -3.261694610119e-01 	 5.273409485817e-01 
6.875000000000e+01 	 -3.101667165756e-01 	  7.986601591110e-01 	  -2.657675743103e-01 	 3.626962304115e-01 
6.900000000000e+01 	 -3.686035275459e-01 	  8.693559765816e-01 	  -2.011666744947e-01 	 2.038067877293e-01 