# Time 	 Euler Position 	 Leap Position  	 RK4 Position 
0.000000000000e+00 	 0.000000000000e+00 	  0.000000000000e+00 	  0.000000000000e+00 
9.999999776483e-03 	 9.999999776483e-03 	  9.999999776483e-03 	  9.999833069742e-03 
1.999999955297e-02 	 1.999899931252e-02 	  1.999899931252e-02 	  1.999866589904e-02 
2.999999932945e-02 	 2.999600023031e-02 	  2.999599836767e-02 	  2.999549917877e-02 
3.999999910593e-02 	 3.999000042677e-02 	  3.999000042677e-02 	  3.998933359981e-02 
4.999999701977e-02 	 4.998000338674e-02 	  4.997999966145e-02 	  4.997916892171e-02 
5.999999865890e-02 	 5.996500700712e-02 	  5.996499955654e-02 	  5.996400490403e-02 
7.000000029802e-02 	 6.994401663542e-02 	  6.994400918484e-02 	  6.994284689426e-02 
7.999999821186e-02 	 7.991603016853e-02 	  7.991602271795e-02 	  7.991469651461e-02 
8.999999612570e-02 	 8.988004922867e-02 	  8.988004177809e-02 	  8.987855166197e-02 
9.999999403954e-02 	 9.983508288860e-02 	  9.983507543802e-02 	  9.983342140913e-02 
1.099999994040e-01 	 1.097801327705e-01 	  1.097801253200e-01 	  1.097783073783e-01 
1.199999973178e-01 	 1.197142004967e-01 	  1.197141930461e-01 	  1.197122111917e-01 
1.299999952316e-01 	 1.296363025904e-01 	  1.296362876892e-01 	  1.296341419220e-01 
1.400000005960e-01 	 1.395454406738e-01 	  1.395454257727e-01 	  1.395431160927e-01 
1.499999910593e-01 	 1.494406163692e-01 	  1.494406014681e-01 	  1.494381278753e-01 
1.599999964237e-01 	 1.593208611012e-01 	  1.593208312988e-01 	  1.593182086945e-01 
1.700000017881e-01 	 1.691851615906e-01 	  1.691851317883e-01 	  1.691823452711e-01 
1.799999922514e-01 	 1.790325492620e-01 	  1.790325194597e-01 	  1.790295690298e-01 
1.899999976158e-01 	 1.888620257378e-01 	  1.888619959354e-01 	  1.888588964939e-01 
1.999999880791e-01 	 1.986726224422e-01 	  1.986725926399e-01 	  1.986693292856e-01 
2.099999934435e-01 	 2.084633558989e-01 	  2.084633260965e-01 	  2.084598988295e-01 
2.199999988079e-01 	 2.182332426310e-01 	  2.182332128286e-01 	  2.182296216488e-01 
2.299999892712e-01 	 2.279812991619e-01 	  2.279812693596e-01 	  2.279775291681e-01 
2.399999946356e-01 	 2.377065569162e-01 	  2.377065271139e-01 	  2.377026379108e-01 
2.500000000000e-01 	 2.474080473185e-01 	  2.474080175161e-01 	  2.474039644003e-01 
2.599999904633e-01 	 2.570847868919e-01 	  2.570847570896e-01 	  2.570805549622e-01 
2.699999809265e-01 	 2.667358219624e-01 	  2.667357921600e-01 	  2.667314410210e-01 
2.800000011921e-01 	 2.763601839542e-01 	  2.763601541519e-01 	  2.763556540012e-01 
2.899999916553e-01 	 2.859569191933e-01 	  2.859568893909e-01 	  2.859522402287e-01 
2.999999821186e-01 	 2.955250442028e-01 	  2.955250144005e-01 	  2.955202162266e-01 
3.100000023842e-01 	 3.050636351109e-01 	  3.050636053085e-01 	  3.050586581230e-01 
3.199999928474e-01 	 3.145717084408e-01 	  3.145716786385e-01 	  3.145665824413e-01 
3.299999833107e-01 	 3.240483403206e-01 	  3.240483105183e-01 	  3.240430355072e-01 
3.400000035763e-01 	 3.334925472736e-01 	  3.334925174713e-01 	  3.334870934486e-01 
3.499999940395e-01 	 3.429034054279e-01 	  3.429033756256e-01 	  3.428978025913e-01 
3.599999845028e-01 	 3.522799909115e-01 	  3.522799611092e-01 	  3.522742390633e-01 
3.700000047684e-01 	 3.616213500500e-01 	  3.616213202477e-01 	  3.616154491901e-01 
3.799999952316e-01 	 3.709265291691e-01 	  3.709264993668e-01 	  3.709204792976e-01 
3.899999856949e-01 	 3.801946341991e-01 	  3.801946043968e-01 	  3.801884353161e-01 
3.999999761581e-01 	 3.894247114658e-01 	  3.894246816635e-01 	  3.894183635712e-01 
4.099999964237e-01 	 3.986158370972e-01 	  3.986158072948e-01 	  3.986093401909e-01 
4.199999868870e-01 	 4.077671170235e-01 	  4.077670872211e-01 	  4.077604711056e-01 
4.299999773502e-01 	 4.168775975704e-01 	  4.168775677681e-01 	  4.168708324432e-01 
4.399999976158e-01 	 4.259464144707e-01 	  4.259463846684e-01 	  4.259395003319e-01 
4.499999880791e-01 	 4.349726140499e-01 	  4.349725842476e-01 	  4.349655807018e-01 
4.599999785423e-01 	 4.439553320408e-01 	  4.439553022385e-01 	  4.439481496811e-01 
4.699999988079e-01 	 4.528936445713e-01 	  4.528936147690e-01 	  4.528863132000e-01 
4.799999892712e-01 	 4.617866873741e-01 	  4.617866575718e-01 	  4.617792069912e-01 
4.899999797344e-01 	 4.706335365772e-01 	  4.706335067749e-01 	  4.706259071827e-01 
5.000000000000e-01 	 4.794333279133e-01 	  4.794332981110e-01 	  4.794255495071e-01 
5.099999904633e-01 	 4.881851673126e-01 	  4.881851375103e-01 	  4.881772696972e-01 
5.199999809265e-01 	 4.968881905079e-01 	  4.968881607056e-01 	  4.968801736832e-01 
5.299999713898e-01 	 5.055415034294e-01 	  5.055415034294e-01 	  5.055333971977e-01 
5.399999618530e-01 	 5.141443014145e-01 	  5.141443014145e-01 	  5.141360759735e-01 
5.500000119209e-01 	 5.226956605911e-01 	  5.226956605911e-01 	  5.226873159409e-01 
5.600000023842e-01 	 5.311947464943e-01 	  5.311947464943e-01 	  5.311862826347e-01 
5.699999928474e-01 	 5.396407246590e-01 	  5.396407246590e-01 	  5.396321415901e-01 
5.799999833107e-01 	 5.480327606201e-01 	  5.480327606201e-01 	  5.480239987373e-01 
5.899999737740e-01 	 5.563699603081e-01 	  5.563699603081e-01 	  5.563610792160e-01 
5.999999642372e-01 	 5.646515488625e-01 	  5.646515488625e-01 	  5.646425485611e-01 
6.100000143051e-01 	 5.728766322136e-01 	  5.728766322136e-01 	  5.728675127029e-01 
6.200000047684e-01 	 5.810444355011e-01 	  5.810444355011e-01 	  5.810351967812e-01 
6.299999952316e-01 	 5.891541242599e-01 	  5.891541242599e-01 	  5.891447663307e-01 
6.399999856949e-01 	 5.972049236298e-01 	  5.972049236298e-01 	  5.971954464912e-01 
6.499999761581e-01 	 6.051959991455e-01 	  6.051959991455e-01 	  6.051864027977e-01 
6.599999666214e-01 	 6.131265759468e-01 	  6.131265759468e-01 	  6.131168603897e-01 
6.699999570847e-01 	 6.209958195686e-01 	  6.209958195686e-01 	  6.209859848022e-01 
6.800000071526e-01 	 6.288029551506e-01 	  6.288029551506e-01 	  6.287930011749e-01 
6.899999976158e-01 	 6.365472078323e-01 	  6.365472078323e-01 	  6.365371346474e-01 
6.999999880791e-01 	 6.442278027534e-01 	  6.442278027534e-01 	  6.442176103592e-01 
7.099999785423e-01 	 6.518439650536e-01 	  6.518440246582e-01 	  6.518337130547e-01 
7.199999690056e-01 	 6.593949794769e-01 	  6.593950390816e-01 	  6.593846082687e-01 
7.299999594688e-01 	 6.668800711632e-01 	  6.668801307678e-01 	  6.668695807457e-01 
7.400000095367e-01 	 6.742984652519e-01 	  6.742985248566e-01 	  6.742878556252e-01 
7.500000000000e-01 	 6.816493868828e-01 	  6.816494464874e-01 	  6.816387176514e-01 
7.599999904633e-01 	 6.889321804047e-01 	  6.889322400093e-01 	  6.889213919640e-01 
7.699999809265e-01 	 6.961460709572e-01 	  6.961461305618e-01 	  6.961351633072e-01 
7.799999713898e-01 	 7.032903432846e-01 	  7.032904028893e-01 	  7.032793164253e-01 
7.899999618530e-01 	 7.103642821312e-01 	  7.103643417358e-01 	  7.103531956673e-01 
7.999999523163e-01 	 7.173671722412e-01 	  7.173672318459e-01 	  7.173560261726e-01 
8.100000023842e-01 	 7.242983579636e-01 	  7.242984175682e-01 	  7.242870926857e-01 
8.199999928474e-01 	 7.311571240425e-01 	  7.311571836472e-01 	  7.311457395554e-01 
8.299999833107e-01 	 7.379427552223e-01 	  7.379428148270e-01 	  7.379312515259e-01 
8.399999737740e-01 	 7.446545958519e-01 	  7.446546554565e-01 	  7.446429729462e-01 
8.499999642372e-01 	 7.512919902802e-01 	  7.512920498848e-01 	  7.512802481651e-01 
8.599999547005e-01 	 7.578542232513e-01 	  7.578542828560e-01 	  7.578424215317e-01 
8.700000047684e-01 	 7.643406987190e-01 	  7.643407583237e-01 	  7.643287777901e-01 
8.799999952316e-01 	 7.707507014275e-01 	  7.707507610321e-01 	  7.707387208939e-01 
8.899999856949e-01 	 7.770836353302e-01 	  7.770836949348e-01 	  7.770715951920e-01 
8.999999761581e-01 	 7.833388447762e-01 	  7.833389043808e-01 	  7.833267450333e-01 
9.099999666214e-01 	 7.895157337189e-01 	  7.895157933235e-01 	  7.895035743713e-01 
9.199999570847e-01 	 7.956137061119e-01 	  7.956137657166e-01 	  7.956014275551e-01 
9.300000071526e-01 	 8.016321063042e-01 	  8.016321659088e-01 	  8.016197681427e-01 
9.399999976158e-01 	 8.075703382492e-01 	  8.075703978539e-01 	  8.075579404831e-01 
9.499999880791e-01 	 8.134278059006e-01 	  8.134278655052e-01 	  8.134153485298e-01 
9.599999785423e-01 	 8.192039132118e-01 	  8.192039728165e-01 	  8.191913962364e-01 
9.699999690056e-01 	 8.248981237411e-01 	  8.248981833458e-01 	  8.248855471611e-01 
9.799999594688e-01 	 8.305098414421e-01 	  8.305099010468e-01 	  8.304972052574e-01 
9.899999499321e-01 	 8.360385298729e-01 	  8.360385894775e-01 	  8.360258340836e-01 
1.000000000000e+00 	 8.414835929871e-01 	  8.414836525917e-01 	  8.414708375931e-01 
1.009999990463e+00 	 8.468444943428e-01 	  8.468445539474e-01 	  8.468316793442e-01 
1.019999980927e+00 	 8.521206974983e-01 	  8.521207571030e-01 	  8.521078824997e-01 
1.029999971390e+00 	 8.573117256165e-01 	  8.573117852211e-01 	  8.572988510132e-01 
1.039999961853e+00 	 8.624169826508e-01 	  8.624171018600e-01 	  8.624041080475e-01 
1.049999952316e+00 	 8.674360513687e-01 	  8.674361705780e-01 	  8.674231171608e-01 
1.059999942780e+00 	 8.723683357239e-01 	  8.723684549332e-01 	  8.723554015160e-01 
1.069999933243e+00 	 8.772134184837e-01 	  8.772135376930e-01 	  8.772004246712e-01 
1.079999923706e+00 	 8.819707632065e-01 	  8.819708824158e-01 	  8.819577097893e-01 
1.090000033379e+00 	 8.866398930550e-01 	  8.866400122643e-01 	  8.866268396378e-01 
1.100000023842e+00 	 8.912203907967e-01 	  8.912205100060e-01 	  8.912072777748e-01 
1.110000014305e+00 	 8.957117199898e-01 	  8.957118988037e-01 	  8.956986069679e-01 
1.120000004768e+00 	 9.001135230064e-01 	  9.001137018204e-01 	  9.001003503799e-01 
1.129999995232e+00 	 9.044253230095e-01 	  9.044255018234e-01 	  9.044120907784e-01 
1.139999985695e+00 	 9.086466431618e-01 	  9.086468219757e-01 	  9.086334109306e-01 
1.149999976158e+00 	 9.127771258354e-01 	  9.127773046494e-01 	  9.127638339996e-01 
1.159999966621e+00 	 9.168162941933e-01 	  9.168164730072e-01 	  9.168030023575e-01 
1.169999957085e+00 	 9.207637906075e-01 	  9.207639694214e-01 	  9.207504987717e-01 
1.179999947548e+00 	 9.246191978455e-01 	  9.246193766594e-01 	  9.246059060097e-01 
1.189999938011e+00 	 9.283821582794e-01 	  9.283823370934e-01 	  9.283688664436e-01 
1.199999928474e+00 	 9.320523142815e-01 	  9.320524930954e-01 	  9.320389628410e-01 
1.209999918938e+00 	 9.356292486191e-01 	  9.356294274330e-01 	  9.356158971786e-01 
1.220000028610e+00 	 9.391126036644e-01 	  9.391127824783e-01 	  9.390992522240e-01 
1.230000019073e+00 	 9.425020813942e-01 	  9.425022602081e-01 	  9.424886703491e-01 
1.240000009537e+00 	 9.457972645760e-01 	  9.457974433899e-01 	  9.457838535309e-01 
1.250000000000e+00 	 9.489979147911e-01 	  9.489980936050e-01 	  9.489844441414e-01 
1.259999990463e+00 	 9.521036148071e-01 	  9.521037936211e-01 	  9.520901441574e-01 
1.269999980927e+00 	 9.551141262054e-01 	  9.551143050194e-01 	  9.551006555557e-01 
1.279999971390e+00 	 9.580291509628e-01 	  9.580293297768e-01 	  9.580156803131e-01 
1.289999961853e+00 	 9.608483314514e-01 	  9.608485102654e-01 	  9.608348608017e-01 
1.299999952316e+00 	 9.635714292526e-01 	  9.635716080666e-01 	  9.635579586029e-01 
1.309999942780e+00 	 9.661982059479e-01 	  9.661983847618e-01 	  9.661847352982e-01 
1.319999933243e+00 	 9.687283635139e-01 	  9.687285423279e-01 	  9.687148928642e-01 
1.329999923706e+00 	 9.711616039276e-01 	  9.711617827415e-01 	  9.711481928825e-01 
1.339999914169e+00 	 9.734977483749e-01 	  9.734979271889e-01 	  9.734843373299e-01 
1.350000023842e+00 	 9.757365584373e-01 	  9.757367372513e-01 	  9.757231473923e-01 
1.360000014305e+00 	 9.778777956963e-01 	  9.778779745102e-01 	  9.778643846512e-01 
1.370000004768e+00 	 9.799212217331e-01 	  9.799214005470e-01 	  9.799078702927e-01 
1.379999995232e+00 	 9.818666577339e-01 	  9.818668365479e-01 	  9.818533658981e-01 
1.389999985695e+00 	 9.837139248848e-01 	  9.837141036987e-01 	  9.837006330490e-01 
1.399999976158e+00 	 9.854627847672e-01 	  9.854629635811e-01 	  9.854495525360e-01 
1.409999966621e+00 	 9.871131181717e-01 	  9.871132969856e-01 	  9.870999455452e-01 
1.419999957085e+00 	 9.886647462845e-01 	  9.886649250984e-01 	  9.886516332626e-01 
1.429999947548e+00 	 9.901174902916e-01 	  9.901176691055e-01 	  9.901044368744e-01 
1.439999938011e+00 	 9.914712309837e-01 	  9.914714097977e-01 	  9.914582371712e-01 
1.449999928474e+00 	 9.927258491516e-01 	  9.927260279655e-01 	  9.927128553391e-01 
1.459999918938e+00 	 9.938811659813e-01 	  9.938813447952e-01 	  9.938682317734e-01 
1.469999909401e+00 	 9.949371218681e-01 	  9.949373006821e-01 	  9.949242472649e-01 
1.480000019073e+00 	 9.958935976028e-01 	  9.958937764168e-01 	  9.958807229996e-01 
1.490000009537e+00 	 9.967504739761e-01 	  9.967506527901e-01 	  9.967376589775e-01 
1.500000000000e+00 	 9.975076317787e-01 	  9.975078105927e-01 	  9.974948763847e-01 
1.509999990463e+00 	 9.981650710106e-01 	  9.981652498245e-01 	  9.981523752213e-01 
1.519999980927e+00 	 9.987226724625e-01 	  9.987228512764e-01 	  9.987100362778e-01 
1.529999971390e+00 	 9.991804361343e-01 	  9.991806149483e-01 	  9.991678595543e-01 
1.539999961853e+00 	 9.995382428169e-01 	  9.995384216309e-01 	  9.995257258415e-01 
1.549999952316e+00 	 9.997960925102e-01 	  9.997962713242e-01 	  9.997836351395e-01 
1.559999942780e+00 	 9.999539852142e-01 	  9.999541640282e-01 	  9.999415874481e-01 
1.569999933243e+00 	 1.000011920929e+00 	  1.000012040138e+00 	  9.999995231628e-01 
1.579999923706e+00 	 9.999698400497e-01 	  9.999699592590e-01 	  9.999575018883e-01 
1.589999914169e+00 	 9.998277425766e-01 	  9.998278617859e-01 	  9.998154640198e-01 
1.599999904633e+00 	 9.995856881142e-01 	  9.995858073235e-01 	  9.995734691620e-01 
1.610000014305e+00 	 9.992436170578e-01 	  9.992437958717e-01 	  9.992315173149e-01 
1.620000004768e+00 	 9.988016486168e-01 	  9.988018274307e-01 	  9.987896084785e-01 
1.629999995232e+00 	 9.982597827911e-01 	  9.982599616051e-01 	  9.982478618622e-01 
1.639999985695e+00 	 9.976181387901e-01 	  9.976183176041e-01 	  9.976062774658e-01 
1.649999976158e+00 	 9.968767166138e-01 	  9.968768954277e-01 	  9.968649148941e-01 
1.659999966621e+00 	 9.960355758667e-01 	  9.960357546806e-01 	  9.960238933563e-01 
1.669999957085e+00 	 9.950948357582e-01 	  9.950950145721e-01 	  9.950832724571e-01 
1.679999947548e+00 	 9.940546154976e-01 	  9.940547943115e-01 	  9.940431118011e-01 
1.689999938011e+00 	 9.929149746895e-01 	  9.929151535034e-01 	  9.929035902023e-01 
1.699999928474e+00 	 9.916760325432e-01 	  9.916762113571e-01 	  9.916647672653e-01 
1.709999918938e+00 	 9.903379082680e-01 	  9.903380870819e-01 	  9.903267621994e-01 
1.719999909401e+00 	 9.889007806778e-01 	  9.889009594917e-01 	  9.888897538185e-01 
1.730000019073e+00 	 9.873647689819e-01 	  9.873649477959e-01 	  9.873538017273e-01 
1.740000009537e+00 	 9.857299923897e-01 	  9.857301712036e-01 	  9.857191443443e-01 
1.750000000000e+00 	 9.839966297150e-01 	  9.839968681335e-01 	  9.839859008789e-01 
1.759999990463e+00 	 9.821649193764e-01 	  9.821651577950e-01 	  9.821542501450e-01 
1.769999980927e+00 	 9.802349805832e-01 	  9.802352190018e-01 	  9.802244305611e-01 
1.779999971390e+00 	 9.782069921494e-01 	  9.782072305679e-01 	  9.781965613365e-01 
1.789999961853e+00 	 9.760811924934e-01 	  9.760814309120e-01 	  9.760708808899e-01 
1.799999952316e+00 	 9.738578200340e-01 	  9.738580584526e-01 	  9.738475680351e-01 
1.809999942780e+00 	 9.715370535851e-01 	  9.715372920036e-01 	  9.715269207954e-01 
1.819999933243e+00 	 9.691191315651e-01 	  9.691193699837e-01 	  9.691091179848e-01 
1.829999923706e+00 	 9.666042923927e-01 	  9.666045308113e-01 	  9.665943980217e-01 
1.839999914169e+00 	 9.639927744865e-01 	  9.639930129051e-01 	  9.639829993248e-01 
1.849999904633e+00 	 9.612848758698e-01 	  9.612851142883e-01 	  9.612752199173e-01 
1.860000014305e+00 	 9.584808349609e-01 	  9.584810733795e-01 	  9.584712982178e-01 
1.870000004768e+00 	 9.555809497833e-01 	  9.555811882019e-01 	  9.555715322495e-01 
1.879999995232e+00 	 9.525855183601e-01 	  9.525857567787e-01 	  9.525762200356e-01 
1.889999985695e+00 	 9.494948387146e-01 	  9.494950771332e-01 	  9.494856595993e-01 
1.899999976158e+00 	 9.463092088699e-01 	  9.463094472885e-01 	  9.463001489639e-01 
1.909999966621e+00 	 9.430289268494e-01 	  9.430291652679e-01 	  9.430199861526e-01 
1.919999957085e+00 	 9.396543502808e-01 	  9.396545886993e-01 	  9.396455287933e-01 
1.929999947548e+00 	 9.361857771873e-01 	  9.361860156059e-01 	  9.361771345139e-01 
1.939999938011e+00 	 9.326236248016e-01 	  9.326238632202e-01 	  9.326151013374e-01 
1.949999928474e+00 	 9.289681911469e-01 	  9.289684295654e-01 	  9.289597868919e-01 
1.959999918938e+00 	 9.252198338509e-01 	  9.252200722694e-01 	  9.252116084099e-01 
1.969999909401e+00 	 9.213789701462e-01 	  9.213792085648e-01 	  9.213709235191e-01 
1.979999899864e+00 	 9.174459576607e-01 	  9.174461960793e-01 	  9.174380898476e-01 
1.990000009537e+00 	 9.134212136269e-01 	  9.134214520454e-01 	  9.134135246277e-01 
2.000000000000e+00 	 9.093051552773e-01 	  9.093053936958e-01 	  9.092975854874e-01 
2.009999990463e+00 	 9.050981402397e-01 	  9.050983786583e-01 	  9.050907492638e-01 
2.019999980927e+00 	 9.008006453514e-01 	  9.008008837700e-01 	  9.007933735847e-01 
2.029999971390e+00 	 8.964130282402e-01 	  8.964132666588e-01 	  8.964059352875e-01 
2.039999961853e+00 	 8.919357657433e-01 	  8.919360041618e-01 	  8.919288516045e-01 
2.049999952316e+00 	 8.873693346977e-01 	  8.873695731163e-01 	  8.873625993729e-01 
2.059999942780e+00 	 8.827141523361e-01 	  8.827143907547e-01 	  8.827075958252e-01 
2.069999933243e+00 	 8.779706954956e-01 	  8.779709339142e-01 	  8.779643177986e-01 
2.079999923706e+00 	 8.731394410133e-01 	  8.731396794319e-01 	  8.731332421303e-01 
2.089999914169e+00 	 8.682208657265e-01 	  8.682211041451e-01 	  8.682148456573e-01 
2.099999904633e+00 	 8.632155060768e-01 	  8.632157444954e-01 	  8.632096052170e-01 
2.109999895096e+00 	 8.581237792969e-01 	  8.581240773201e-01 	  8.581180572510e-01 
2.119999885559e+00 	 8.529462814331e-01 	  8.529465794563e-01 	  8.529407382011e-01 
2.129999876022e+00 	 8.476834893227e-01 	  8.476837873459e-01 	  8.476781249046e-01 
2.139999866486e+00 	 8.423359394073e-01 	  8.423362374306e-01 	  8.423306941986e-01 
2.149999856949e+00 	 8.369041085243e-01 	  8.369044065475e-01 	  8.368990421295e-01 
2.159999847412e+00 	 8.313885927200e-01 	  8.313888907433e-01 	  8.313837051392e-01 
2.169999837875e+00 	 8.257899284363e-01 	  8.257902264595e-01 	  8.257852196693e-01 
2.180000066757e+00 	 8.201087117195e-01 	  8.201090097427e-01 	  8.201041817665e-01 
2.190000057220e+00 	 8.143454790115e-01 	  8.143457770348e-01 	  8.143411278725e-01 
2.200000047684e+00 	 8.085008263588e-01 	  8.085011243820e-01 	  8.084966540337e-01 
2.210000038147e+00 	 8.025752902031e-01 	  8.025755882263e-01 	  8.025712966919e-01 
2.220000028610e+00 	 7.965695261955e-01 	  7.965698242188e-01 	  7.965657114983e-01 
2.230000019073e+00 	 7.904840707779e-01 	  7.904844284058e-01 	  7.904804348946e-01 
2.240000009537e+00 	 7.843195796013e-01 	  7.843199372292e-01 	  7.843161225319e-01 
2.250000000000e+00 	 7.780766487122e-01 	  7.780770063400e-01 	  7.780733704567e-01 
2.259999990463e+00 	 7.717559337616e-01 	  7.717562913895e-01 	  7.717528343201e-01 
2.269999980927e+00 	 7.653580307961e-01 	  7.653583884239e-01 	  7.653551101685e-01 
2.279999971390e+00 	 7.588835954666e-01 	  7.588839530945e-01 	  7.588808536530e-01 
2.289999961853e+00 	 7.523332834244e-01 	  7.523336410522e-01 	  7.523307204247e-01 
2.299999952316e+00 	 7.457077503204e-01 	  7.457081079483e-01 	  7.457053661346e-01 
2.309999942780e+00 	 7.390076518059e-01 	  7.390080094337e-01 	  7.390054464340e-01 
2.319999933243e+00 	 7.322336435318e-01 	  7.322340011597e-01 	  7.322316169739e-01 
2.329999923706e+00 	 7.253863811493e-01 	  7.253867387772e-01 	  7.253845334053e-01 
2.339999914169e+00 	 7.184665799141e-01 	  7.184669375420e-01 	  7.184649109840e-01 
2.349999904633e+00 	 7.114749550819e-01 	  7.114753127098e-01 	  7.114734649658e-01 
2.359999895096e+00 	 7.044121623039e-01 	  7.044125199318e-01 	  7.044108510017e-01 
2.369999885559e+00 	 6.972789168358e-01 	  6.972793340683e-01 	  6.972778439522e-01 
2.379999876022e+00 	 6.900759935379e-01 	  6.900764107704e-01 	  6.900750994682e-01 
2.389999866486e+00 	 6.828040480614e-01 	  6.828044652939e-01 	  6.828033328056e-01 
2.399999856949e+00 	 6.754637956619e-01 	  6.754642128944e-01 	  6.754633188248e-01 
2.409999847412e+00 	 6.680560112000e-01 	  6.680564284325e-01 	  6.680557131767e-01 
2.419999837875e+00 	 6.605814099312e-01 	  6.605818271637e-01 	  6.605813503265e-01 
2.429999828339e+00 	 6.530407667160e-01 	  6.530411839485e-01 	  6.530408859253e-01 
2.440000057220e+00 	 6.454347968102e-01 	  6.454352140427e-01 	  6.454351544380e-01 
2.450000047684e+00 	 6.377643346786e-01 	  6.377647519112e-01 	  6.377648711205e-01 
2.460000038147e+00 	 6.300300955772e-01 	  6.300305128098e-01 	  6.300308108330e-01 
2.470000028610e+00 	 6.222328543663e-01 	  6.222332715988e-01 	  6.222337484360e-01 
2.480000019073e+00 	 6.143733859062e-01 	  6.143738031387e-01 	  6.143744587898e-01 
2.490000009537e+00 	 6.064524650574e-01 	  6.064528822899e-01 	  6.064537167549e-01 
2.500000000000e+00 	 5.984708666801e-01 	  5.984712839127e-01 	  5.984723567963e-01 
2.509999990463e+00 	 5.904294252396e-01 	  5.904298424721e-01 	  5.904311537743e-01 
2.519999980927e+00 	 5.823289752007e-01 	  5.823293924332e-01 	  5.823308825493e-01 
2.529999971390e+00 	 5.741702914238e-01 	  5.741707086563e-01 	  5.741723775864e-01 
2.539999961853e+00 	 5.659541487694e-01 	  5.659545660019e-01 	  5.659564733505e-01 
2.549999952316e+00 	 5.576814413071e-01 	  5.576818585396e-01 	  5.576839447021e-01 
2.559999942780e+00 	 5.493529438972e-01 	  5.493533611298e-01 	  5.493556857109e-01 
2.569999933243e+00 	 5.409695506096e-01 	  5.409699678421e-01 	  5.409724712372e-01 
2.579999923706e+00 	 5.325320363045e-01 	  5.325324535370e-01 	  5.325351357460e-01 
2.589999914169e+00 	 5.240412950516e-01 	  5.240417122841e-01 	  5.240445733070e-01 
2.599999904633e+00 	 5.154981017113e-01 	  5.154985189438e-01 	  5.155016183853e-01 
2.609999895096e+00 	 5.069034099579e-01 	  5.069038271904e-01 	  5.069071054459e-01 
2.619999885559e+00 	 4.982579946518e-01 	  4.982584118843e-01 	  4.982618987560e-01 
2.629999876022e+00 	 4.895627498627e-01 	  4.895631670952e-01 	  4.895668625832e-01 
2.639999866486e+00 	 4.808185696602e-01 	  4.808189868927e-01 	  4.808228611946e-01 
2.649999856949e+00 	 4.720262885094e-01 	  4.720267057419e-01 	  4.720307886600e-01 
2.659999847412e+00 	 4.631868004799e-01 	  4.631872177124e-01 	  4.631915092468e-01 
2.669999837875e+00 	 4.543009996414e-01 	  4.543014168739e-01 	  4.543059170246e-01 
2.679999828339e+00 	 4.453697800636e-01 	  4.453701972961e-01 	  4.453749060631e-01 
2.690000057220e+00 	 4.363940060139e-01 	  4.363944232464e-01 	  4.363993406296e-01 
2.700000047684e+00 	 4.273746013641e-01 	  4.273750185966e-01 	  4.273801445961e-01 
2.710000038147e+00 	 4.183124601841e-01 	  4.183128774166e-01 	  4.183182120323e-01 
2.720000028610e+00 	 4.092084765434e-01 	  4.092088937759e-01 	  4.092144370079e-01 
2.730000019073e+00 	 4.000635743141e-01 	  4.000639915466e-01 	  4.000697433949e-01 
2.740000009537e+00 	 3.908786773682e-01 	  3.908790946007e-01 	  3.908850550652e-01 
2.750000000000e+00 	 3.816546797752e-01 	  3.816550970078e-01 	  3.816612660885e-01 
2.759999990463e+00 	 3.723925352097e-01 	  3.723929524422e-01 	  3.723993003368e-01 
2.769999980927e+00 	 3.630931377411e-01 	  3.630935549736e-01 	  3.631001114845e-01 
2.779999971390e+00 	 3.537574410439e-01 	  3.537578582764e-01 	  3.537646234035e-01 
2.789999961853e+00 	 3.443863689899e-01 	  3.443867862225e-01 	  3.443937599659e-01 
2.799999952316e+00 	 3.349808454514e-01 	  3.349812626839e-01 	  3.349884450436e-01 
2.809999942780e+00 	 3.255418241024e-01 	  3.255422413349e-01 	  3.255496323109e-01 
2.819999933243e+00 	 3.160702586174e-01 	  3.160706758499e-01 	  3.160782754421e-01 
2.829999923706e+00 	 3.065670728683e-01 	  3.065674901009e-01 	  3.065752983093e-01 
2.839999914169e+00 	 2.970332503319e-01 	  2.970336675644e-01 	  2.970416545868e-01 
2.849999904633e+00 	 2.874697148800e-01 	  2.874701321125e-01 	  2.874783277512e-01 
2.859999895096e+00 	 2.778774201870e-01 	  2.778778374195e-01 	  2.778862416744e-01 
2.869999885559e+00 	 2.682573497295e-01 	  2.682577669621e-01 	  2.682663798332e-01 
2.879999876022e+00 	 2.586104571819e-01 	  2.586108744144e-01 	  2.586196660995e-01 
2.889999866486e+00 	 2.489376962185e-01 	  2.489381134510e-01 	  2.489470988512e-01 
2.899999856949e+00 	 2.392400503159e-01 	  2.392404675484e-01 	  2.392496466637e-01 
2.909999847412e+00 	 2.295184731483e-01 	  2.295188903809e-01 	  2.295282632113e-01 
2.919999837875e+00 	 2.197739481926e-01 	  2.197743654251e-01 	  2.197839319706e-01 
2.929999828339e+00 	 2.100074440241e-01 	  2.100078612566e-01 	  2.100176215172e-01 
2.939999818802e+00 	 2.002199441195e-01 	  2.002203613520e-01 	  2.002303153276e-01 
2.950000047684e+00 	 1.904124170542e-01 	  1.904128342867e-01 	  1.904229819775e-01 
2.960000038147e+00 	 1.805858463049e-01 	  1.805862635374e-01 	  1.805966049433e-01 
2.970000028610e+00 	 1.707412153482e-01 	  1.707416325808e-01 	  1.707521677017e-01 
2.980000019073e+00 	 1.608795225620e-01 	  1.608799397945e-01 	  1.608906537294e-01 
2.990000009537e+00 	 1.510017365217e-01 	  1.510021537542e-01 	  1.510130465031e-01 
3.000000000000e+00 	 1.411088556051e-01 	  1.411092579365e-01 	  1.411203444004e-01 
3.009999990463e+00 	 1.312018632889e-01 	  1.312022656202e-01 	  1.312135308981e-01 
3.019999980927e+00 	 1.212817430496e-01 	  1.212821453810e-01 	  1.212935969234e-01 
3.029999971390e+00 	 1.113494932652e-01 	  1.113498955965e-01 	  1.113615334034e-01 
3.039999961853e+00 	 1.014061123133e-01 	  1.014065146446e-01 	  1.014183312654e-01 
3.049999952316e+00 	 9.145259112120e-02 	  9.145299345255e-02 	  9.146498888731e-02 
3.059999942780e+00 	 8.148992061615e-02 	  8.149032294750e-02 	  8.150249719620e-02 
3.069999933243e+00 	 7.151910662651e-02 	  7.151950150728e-02 	  7.153185456991e-02 
3.079999923706e+00 	 6.154114007950e-02 	  6.154153123498e-02 	  6.155406311154e-02 
3.089999914169e+00 	 5.155701935291e-02 	  5.155740678310e-02 	  5.157011374831e-02 
3.099999904633e+00 	 4.156774282455e-02 	  4.156812652946e-02 	  4.158100858331e-02 
3.109999895096e+00 	 3.157430887222e-02 	  3.157468885183e-02 	  3.158774599433e-02 
3.119999885559e+00 	 2.157771587372e-02 	  2.157809399068e-02 	  2.159132435918e-02 
3.129999876022e+00 	 1.157896593213e-02 	  1.157934218645e-02 	  1.159274298698e-02 
3.139999866486e+00 	 1.579058356583e-03 	  1.579432748258e-03 	  1.593002118170e-03 
3.149999856949e+00 	 -8.421006612480e-03 	  -8.420635014772e-03 	  -8.406897075474e-03 
3.159999847412e+00 	 -1.842023059726e-02 	  -1.841986179352e-02 	  -1.840595528483e-02 
3.169999837875e+00 	 -2.841761149466e-02 	  -2.841724641621e-02 	  -2.840317413211e-02 
3.179999828339e+00 	 -3.841214999557e-02 	  -3.841178864241e-02 	  -3.839755058289e-02 
3.189999818802e+00 	 -4.840284958482e-02 	  -4.840248823166e-02 	  -4.838808998466e-02 
3.199999809265e+00 	 -5.838870629668e-02 	  -5.838834866881e-02 	  -5.837379023433e-02 
3.210000038147e+00 	 -6.836872547865e-02 	  -6.836837530136e-02 	  -6.835365295410e-02 
3.220000028610e+00 	 -7.834190875292e-02 	  -7.834155857563e-02 	  -7.832667976618e-02 
3.230000019073e+00 	 -8.830725401640e-02 	  -8.830691128969e-02 	  -8.829187601805e-02 
3.240000009537e+00 	 -9.826377034187e-02 	  -9.826343506575e-02 	  -9.824824333191e-02 
3.250000000000e+00 	 -1.082104593515e-01 	  -1.082101315260e-01 	  -1.081947833300e-01 
3.259999990463e+00 	 -1.181463301182e-01 	  -1.181460022926e-01 	  -1.181305050850e-01 
3.269999980927e+00 	 -1.280703842640e-01 	  -1.280700564384e-01 	  -1.280544102192e-01 
3.279999971390e+00 	 -1.379816383123e-01 	  -1.379813104868e-01 	  -1.379655152559e-01 
3.289999961853e+00 	 -1.478790938854e-01 	  -1.478787660599e-01 	  -1.478628218174e-01 
3.299999952316e+00 	 -1.577617526054e-01 	  -1.577614247799e-01 	  -1.577453464270e-01 
3.309999942780e+00 	 -1.676286458969e-01 	  -1.676283180714e-01 	  -1.676120907068e-01 
3.319999933243e+00 	 -1.774787753820e-01 	  -1.774784475565e-01 	  -1.774620711803e-01 
3.329999923706e+00 	 -1.873111575842e-01 	  -1.873108297586e-01 	  -1.872943043709e-01 
3.339999914169e+00 	 -1.971248090267e-01 	  -1.971244812012e-01 	  -1.971078068018e-01 
3.349999904633e+00 	 -2.069187462330e-01 	  -2.069184184074e-01 	  -2.069016098976e-01 
3.359999895096e+00 	 -2.166919857264e-01 	  -2.166916579008e-01 	  -2.166747152805e-01 
3.369999885559e+00 	 -2.264435589314e-01 	  -2.264432311058e-01 	  -2.264261543751e-01 
3.379999876022e+00 	 -2.361724823713e-01 	  -2.361721545458e-01 	  -2.361549586058e-01 
3.389999866486e+00 	 -2.458777874708e-01 	  -2.458774596453e-01 	  -2.458601444960e-01 
3.399999856949e+00 	 -2.555585205555e-01 	  -2.555581927299e-01 	  -2.555407285690e-01 
3.409999847412e+00 	 -2.652136981487e-01 	  -2.652133703232e-01 	  -2.651957869530e-01 
3.419999837875e+00 	 -2.748423516750e-01 	  -2.748420238495e-01 	  -2.748243212700e-01 
3.429999828339e+00 	 -2.844434976578e-01 	  -2.844431996346e-01 	  -2.844253778458e-01 
3.439999818802e+00 	 -2.940162122250e-01 	  -2.940159142017e-01 	  -2.939979732037e-01 
3.449999809265e+00 	 -3.035595118999e-01 	  -3.035592436790e-01 	  -3.035411834717e-01 
3.460000038147e+00 	 -3.130724728107e-01 	  -3.130722045898e-01 	  -3.130540251732e-01 
3.470000028610e+00 	 -3.225541114807e-01 	  -3.225538730621e-01 	  -3.225355744362e-01 
3.480000019073e+00 	 -3.320035040379e-01 	  -3.320032656193e-01 	  -3.319848775864e-01 
3.490000009537e+00 	 -3.414196968079e-01 	  -3.414194583893e-01 	  -3.414009809494e-01 
3.500000000000e+00 	 -3.508017361164e-01 	  -3.508015275002e-01 	  -3.507829308510e-01 