# Time 	 x_position	  y_position	 x_velocit	 y_velocity
0.000000000000e+00 	 1.000000000000e+00 	  0.000000000000e+00 	  0.000000000000e+00 	  1.000000014901e-01  
2.500000000000e-01 	 9.791666865349e-01 	  2.500000037253e-02 	  -1.672009974718e-01 	 9.785869717598e-02 
5.000000000000e-01 	 9.163995385170e-01 	  4.892934858799e-02 	  -3.364146947861e-01 	 9.116050601006e-02 
7.500000000000e-01 	 8.109593391418e-01 	  7.058025151491e-02 	  -5.089504122734e-01 	 7.901524007320e-02 
1.000000000000e+00 	 6.619243025780e-01 	  8.843696862459e-02 	  -6.836069226265e-01 	 5.974078178406e-02 
1.250000000000e+00 	 4.691558480263e-01 	  1.004506424069e-01 	  -8.513869047165e-01 	 3.085890412331e-02 
1.500000000000e+00 	 2.362308353186e-01 	  1.038664206862e-01 	  -9.838165640831e-01 	 -9.251574054360e-03 
1.750000000000e+00 	 -2.275241911411e-02 	  9.582486003637e-02 	  -1.030353188515e+00 	 -5.566655844450e-02 
2.000000000000e+00 	 -2.789457440376e-01 	  7.603314518929e-02 	  -9.650257229805e-01 	 -9.545247256756e-02 
2.250000000000e+00 	 -5.052652359009e-01 	  4.809862747788e-02 	  -8.219127058983e-01 	 -1.196740269661e-01 
2.500000000000e+00 	 -6.899020671844e-01 	  1.619613170624e-02 	  -6.502095460892e-01 	 -1.296837925911e-01 
2.750000000000e+00 	 -8.303700089455e-01 	  -1.674327254295e-02 	  -4.746329784393e-01 	 -1.299985647202e-01 
3.000000000000e+00 	 -9.272185564041e-01 	  -4.880315065384e-02 	  -3.023042678833e-01 	 -1.237608939409e-01 
3.250000000000e+00 	 -9.815221428871e-01 	  -7.862371951342e-02 	  -1.337270289660e-01 	 -1.125946193933e-01 
3.500000000000e+00 	 -9.940820932388e-01 	  -1.051004603505e-01 	  3.264217078686e-02 	 -9.714418649673e-02 
3.750000000000e+00 	 -9.652010798454e-01 	  -1.271958053112e-01 	  1.988579332829e-01 	 -7.739952951670e-02 
4.000000000000e+00 	 -8.946531414986e-01 	  -1.438002139330e-01 	  3.668433129787e-01 	 -5.281136557460e-02 
4.250000000000e+00 	 -7.817794084549e-01 	  -1.536014825106e-01 	  5.376111268997e-01 	 -2.228522859514e-02 
4.500000000000e+00 	 -6.258475780487e-01 	  -1.549428254366e-01 	  7.091611027718e-01 	 1.578566990793e-02 
4.750000000000e+00 	 -4.271988868713e-01 	  -1.457086503506e-01 	  8.704759478569e-01 	 6.281821429729e-02 
5.000000000000e+00 	 -1.906096041203e-01 	  -1.235337257385e-01 	  9.895524382591e-01 	 1.166944950819e-01 
5.250000000000e+00 	 6.757733225822e-02 	  -8.736141026020e-02 	  1.016255736351e+00 	 1.660094708204e-01 
5.500000000000e+00 	 3.175182938576e-01 	  -4.052899405360e-02 	  9.338843226433e-01 	 1.957387179136e-01 
5.750000000000e+00 	 5.345194935799e-01 	  1.050794869661e-02 	  7.829792499542e-01 	 2.024762779474e-01 
6.000000000000e+00 	 7.090079188347e-01 	  6.070914492011e-02 	  6.098893284798e-01 	 1.932642310858e-01 
6.250000000000e+00 	 8.394641876221e-01 	  1.071400642395e-01 	  4.355441331863e-01 	 1.747117191553e-01 
6.500000000000e+00 	 9.267799854279e-01 	  1.480650007725e-01 	  2.653671205044e-01 	 1.502962708473e-01 
6.750000000000e+00 	 9.721477031708e-01 	  1.822881996632e-01 	  9.926950186491e-02 	 1.214791163802e-01 
7.000000000000e+00 	 9.764146804810e-01 	  2.088045626879e-01 	  -6.446375697851e-02 	 8.863002806902e-02 
7.250000000000e+00 	 9.399157762527e-01 	  2.266032099724e-01 	  -2.278816699982e-01 	 5.145277082920e-02 
7.500000000000e+00 	 8.624738454819e-01 	  2.345309406519e-01 	  -3.927704095840e-01 	 9.140195325017e-03 
7.750000000000e+00 	 7.435305714607e-01 	  2.311733067036e-01 	  -5.597855448723e-01 	 -3.955114260316e-02 
8.000000000000e+00 	 5.825810432434e-01 	  2.147553712130e-01 	  -7.260351777077e-01 	 -9.598658978939e-02 
8.250000000000e+00 	 3.805129826069e-01 	  1.831800043583e-01 	  -8.783901333809e-01 	 -1.600563824177e-01 
8.500000000000e+00 	 1.433859765530e-01 	  1.347271800041e-01 	  -9.817786216736e-01 	 -2.250728011131e-01 
8.750000000000e+00 	 -1.103763282299e-01 	  7.064361125231e-02 	  -9.883714318275e-01 	 -2.734087109566e-01 
9.000000000000e+00 	 -3.507997393608e-01 	  -1.977175474167e-03 	  -8.913157582283e-01 	 -2.900864779949e-01 
9.250000000000e+00 	 -5.560342073441e-01 	  -7.439962774515e-02 	  -7.356261014938e-01 	 -2.782747447491e-01 
9.500000000000e+00 	 -7.186127901077e-01 	  -1.411145478487e-01 	  -5.636357069016e-01 	 -2.498385310173e-01 
9.750000000000e+00 	 -8.378520607948e-01 	  -1.993188858032e-01 	  -3.926134705544e-01 	 -2.127526551485e-01 
1.000000000000e+01 	 -9.149194955826e-01 	  -2.474908679724e-01 	  -2.264830172062e-01 	 -1.705641299486e-01 
1.025000000000e+01 	 -9.510935544968e-01 	  -2.846009433270e-01 	  -6.466887146235e-02 	 -1.244933232665e-01 
1.050000000000e+01 	 -9.472539424896e-01 	  -3.097375333309e-01 	  9.465429186821e-02 	 -7.461778819561e-02 
1.075000000000e+01 	 -9.037663936615e-01 	  -3.219098448753e-01 	  2.534835338593e-01 	 -2.036049589515e-02 
1.100000000000e+01 	 -8.205121755600e-01 	  -3.199177682400e-01 	  4.134222567081e-01 	 3.931830450892e-02 
1.125000000000e+01 	 -6.970552802086e-01 	  -3.022506833076e-01 	  5.747118592262e-01 	 1.057406365871e-01 
1.150000000000e+01 	 -5.331562757492e-01 	  -2.670474648476e-01 	  7.334910631180e-01 	 1.798289567232e-01 
1.175000000000e+01 	 -3.303097784519e-01 	  -2.123362123966e-01 	  8.745001554489e-01 	 2.594172656536e-01 
1.200000000000e+01 	 -9.590619802475e-02 	  -1.373388171196e-01 	  9.603168368340e-01 	 3.324997723103e-01 
1.225000000000e+01 	 1.498486399651e-01 	  -4.608631879091e-02 	  9.473124146461e-01 	 3.759917318821e-01 
1.250000000000e+01 	 3.777500092983e-01 	  5.065704882145e-02 	  8.384277224541e-01 	 3.771601915359e-01 
1.275000000000e+01 	 5.690624713898e-01 	  1.424937844276e-01 	  6.809830069542e-01 	 3.462463915348e-01 
1.300000000000e+01 	 7.182414531708e-01 	  2.237802445889e-01 	  5.124903917313e-01 	 2.989039421082e-01 
1.325000000000e+01 	 8.253076672554e-01 	  2.919457554817e-01 	  3.468005359173e-01 	 2.438447177410e-01 
1.350000000000e+01 	 8.916417360306e-01 	  3.457026183605e-01 	  1.865434944630e-01 	 1.844782829285e-01 
1.375000000000e+01 	 9.185793995857e-01 	  3.841848969460e-01 	  3.076027333736e-02 	 1.217288225889e-01 
1.400000000000e+01 	 9.070218801498e-01 	  4.065670371056e-01 	  -1.224255934358e-01 	 5.537434667349e-02 
1.425000000000e+01 	 8.573666214943e-01 	  4.118720889091e-01 	  -2.749146521091e-01 	 -1.543063670397e-02 
1.450000000000e+01 	 7.695645689964e-01 	  3.988517224789e-01 	  -4.280839860439e-01 	 -9.192480891943e-02 
1.475000000000e+01 	 6.433246135712e-01 	  3.659096956253e-01 	  -5.817100405693e-01 	 -1.754221022129e-01 
1.500000000000e+01 	 4.787095189095e-01 	  3.111406862736e-01 	  -7.309067845345e-01 	 -2.661631405354e-01 
1.525000000000e+01 	 2.778711915016e-01 	  2.328281253576e-01 	  -8.583623170853e-01 	 -3.593423068523e-01 
1.550000000000e+01 	 4.952834546566e-02 	  1.314695328474e-01 	  -9.252832531929e-01 	 -4.370535910130e-01 
1.575000000000e+01 	 -1.847704350948e-01 	  1.430132985115e-02 	  -8.939715027809e-01 	 -4.720183312893e-01 
1.600000000000e+01 	 -3.974574208260e-01 	  -1.045396327972e-01 	  -7.764735221863e-01 	 -4.558281302452e-01 
1.625000000000e+01 	 -5.730072259903e-01 	  -2.136127352715e-01 	  -6.202442646027e-01 	 -4.057402610779e-01 
1.650000000000e+01 	 -7.075796127319e-01 	  -3.074097633362e-01 	  -4.575279951096e-01 	 -3.401011228561e-01 
1.675000000000e+01 	 -8.017712831497e-01 	  -3.836632966995e-01 	  -2.990776300430e-01 	 -2.678384482861e-01 
1.700000000000e+01 	 -8.571184873581e-01 	  -4.413290023804e-01 	  -1.464355289936e-01 	 -1.920695006847e-01 
1.725000000000e+01 	 -8.749890923500e-01 	  -4.796980619431e-01 	  1.642234623432e-03 	 -1.133868917823e-01 
1.750000000000e+01 	 -8.562973737717e-01 	  -4.980224370956e-01 	  1.470271646976e-01 	 -3.127096220851e-02 
1.775000000000e+01 	 -8.014755249023e-01 	  -4.953335225582e-01 	  2.914811372757e-01 	 5.537325516343e-02 
1.800000000000e+01 	 -7.105568051338e-01 	  -4.703358113766e-01 	  4.361151456833e-01 	 1.479410082102e-01 
1.825000000000e+01 	 -5.834179520607e-01 	  -4.213630259037e-01 	  5.801986455917e-01 	 2.476341128349e-01 
1.850000000000e+01 	 -4.204574823380e-01 	  -3.465187549591e-01 	  7.177972197533e-01 	 3.537340164185e-01 
1.875000000000e+01 	 -2.245193272829e-01 	  -2.444960176945e-01 	  8.297465443611e-01 	 4.581772089005e-01 
1.900000000000e+01 	 -5.584210157394e-03 	  -1.174301505089e-01 	  8.770989775658e-01 	 5.368313193321e-01 
1.925000000000e+01 	 2.140301615000e-01 	  2.391964197159e-02 	  8.294920921326e-01 	 5.599268674850e-01 
1.950000000000e+01 	 4.091618359089e-01 	  1.625332832336e-01 	  7.068123817444e-01 	 5.251727104187e-01 
1.975000000000e+01 	 5.674363374710e-01 	  2.865059971809e-01 	  5.546422004700e-01 	 4.562774598598e-01 
2.000000000000e+01 	 6.864829063416e-01 	  3.906720280647e-01 	  3.998346924782e-01 	 3.732129633427e-01 
2.025000000000e+01 	 7.673536539078e-01 	  4.731124937534e-01 	  2.504110336304e-01 	 2.847092449665e-01 
2.050000000000e+01 	 8.116884231567e-01 	  5.330266356468e-01 	  1.070242822170e-01 	 1.934817433357e-01 
2.075000000000e+01 	 8.208658099174e-01 	  5.698533654213e-01 	  -3.176198154688e-02 	 9.977322816849e-02 
2.100000000000e+01 	 7.958074212074e-01 	  5.829132795334e-01 	  -1.677619069815e-01 	 2.776376903057e-03 
2.125000000000e+01 	 7.369848489761e-01 	  5.712415575981e-01 	  -3.025597929955e-01 	 -9.882785379887e-02 
2.150000000000e+01 	 6.445275545120e-01 	  5.334993600845e-01 	  -4.369654655457e-01 	 -2.065399736166e-01 
2.175000000000e+01 	 5.185021162033e-01 	  4.679715931416e-01 	  -5.697121024132e-01 	 -3.213275074959e-01 
2.200000000000e+01 	 3.596714735031e-01 	  3.728356063366e-01 	  -6.938346624374e-01 	 -4.411975741386e-01 
2.225000000000e+01 	 1.715847849846e-01 	  2.473727911711e-01 	  -7.886604070663e-01 	 -5.542044639587e-01 
2.250000000000e+01 	 -3.465873003006e-02 	  9.573338925838e-02 	  -8.164853453636e-01 	 -6.300048232079e-01 
2.275000000000e+01 	 -2.366578876972e-01 	  -6.762962043285e-02 	  -7.552259564400e-01 	 -6.383717656136e-01 
2.300000000000e+01 	 -4.122717082500e-01 	  -2.234524935484e-01 	  -6.308702826500e-01 	 -5.844922065735e-01 
2.325000000000e+01 	 -5.520930290222e-01 	  -3.598757386208e-01 	  -4.854221343994e-01 	 -4.975460171700e-01 
2.350000000000e+01 	 -6.549828052521e-01 	  -4.722255170345e-01 	  -3.404887616634e-01 	 -3.981593549252e-01 
2.375000000000e+01 	 -7.223374247551e-01 	  -5.589554309845e-01 	  -2.017435133457e-01 	 -2.945516705513e-01 
2.400000000000e+01 	 -7.558545470238e-01 	  -6.195013523102e-01 	  -6.913690268993e-02 	 -1.889655590057e-01 
2.425000000000e+01 	 -7.569058537483e-01 	  -6.534382104874e-01 	  5.887488275766e-02 	 -8.129012584686e-02 
2.450000000000e+01 	 -7.264170646667e-01 	  -6.601464152336e-01 	  1.840006411076e-01 	 2.955230697989e-02 
2.475000000000e+01 	 -6.649054884911e-01 	  -6.386620402336e-01 	  3.076120615005e-01 	 1.450733691454e-01 
2.500000000000e+01 	 -5.726110339165e-01 	  -5.876097083092e-01 	  4.301890730858e-01 	 2.668185234070e-01 
2.525000000000e+01 	 -4.498109817505e-01 	  -5.052527785301e-01 	  5.499155521393e-01 	 3.953800797462e-01 
2.550000000000e+01 	 -2.976532578468e-01 	  -3.899196982384e-01 	  6.588670015335e-01 	 5.271407365799e-01 
2.575000000000e+01 	 -1.203774660826e-01 	  -2.416824251413e-01 	  7.353680729866e-01 	 6.456812620163e-01 
2.600000000000e+01 	 7.003077864647e-02 	  -6.707908213139e-02 	  7.444484829903e-01 	 7.148735523224e-01 
2.625000000000e+01 	 2.518467903137e-01 	  1.157543510199e-01 	  6.726880073547e-01 	 7.062494158745e-01 
2.650000000000e+01 	 4.063748121262e-01 	  2.860456109047e-01 	  5.501074790955e-01 	 6.332969665527e-01 
2.675000000000e+01 	 5.269005298615e-01 	  4.324028193951e-01 	  4.138230085373e-01 	 5.293946862221e-01 
2.700000000000e+01 	 6.132863163948e-01 	  5.507429838181e-01 	  2.805453538895e-01 	 4.149913191795e-01 
2.725000000000e+01 	 6.671732068062e-01 	  6.398985385895e-01 	  1.539816558361e-01 	 2.975730001926e-01 
2.750000000000e+01 	 6.902770996094e-01 	  6.995295286179e-01 	  3.355143591762e-02 	 1.788706481457e-01 
2.775000000000e+01 	 6.839488744736e-01 	  7.293338775635e-01 	  -8.231943100691e-02 	 5.842796340585e-02 
2.800000000000e+01 	 6.491173505783e-01 	  7.287434935570e-01 	  -1.951911747456e-01 	 -6.507947295904e-02 
2.825000000000e+01 	 5.863533020020e-01 	  6.967941522598e-01 	  -3.061923980713e-01 	 -1.933185458183e-01 
2.850000000000e+01 	 4.960211813450e-01 	  6.320842504501e-01 	  -4.154524505138e-01 	 -3.278102576733e-01 
2.875000000000e+01 	 3.786270618439e-01 	  5.328890085220e-01 	  -5.206137299538e-01 	 -4.686120748520e-01 
2.900000000000e+01 	 2.357143014669e-01 	  3.977782130241e-01 	  -6.129297614098e-01 	 -6.101028919220e-01 
2.925000000000e+01 	 7.216218113899e-02 	  2.278375774622e-01 	  -6.703994274139e-01 	 -7.308822870255e-01 
2.950000000000e+01 	 -9.948541224003e-02 	  3.233706951141e-02 	  -6.622517108917e-01 	 -7.899131774902e-01 
2.975000000000e+01 	 -2.589636743069e-01 	  -1.671190112829e-01 	  -5.835080742836e-01 	 -7.627147436142e-01 
3.000000000000e+01 	 -3.912394642830e-01 	  -3.490203022957e-01 	  -4.659904837608e-01 	 -6.713030934334e-01 
3.025000000000e+01 	 -4.919589161873e-01 	  -5.027705430984e-01 	  -3.410616815090e-01 	 -5.518262982368e-01 
3.050000000000e+01 	 -5.617703199387e-01 	  -6.249334216118e-01 	  -2.210250496864e-01 	 -4.238850474358e-01 
3.075000000000e+01 	 -6.024714708328e-01 	  -7.147130370140e-01 	  -1.079860925674e-01 	 -2.940872311592e-01 
3.100000000000e+01 	 -6.157633662224e-01 	  -7.719770073891e-01 	  -9.882450103760e-04 	 -1.636391580105e-01 
3.125000000000e+01 	 -6.029655933380e-01 	  -7.965326309204e-01 	  1.015042439103e-01 	 -3.175745904446e-02 
3.150000000000e+01 	 -5.650112628937e-01 	  -7.878557443619e-01 	  2.008650600910e-01 	 1.030998900533e-01 
3.175000000000e+01 	 -5.025330781937e-01 	  -7.449826598167e-01 	  2.979546189308e-01 	 2.427122592926e-01 
3.200000000000e+01 	 -4.160339534283e-01 	  -6.664996147156e-01 	  3.925408124924e-01 	 3.884976804256e-01 
3.225000000000e+01 	 -3.062626719475e-01 	  -5.507338047028e-01 	  4.817588925362e-01 	 5.398008227348e-01 
3.250000000000e+01 	 -1.751545071602e-01 	  -3.965991735458e-01 	  5.562571883202e-01 	 6.885982155800e-01 
3.275000000000e+01 	 -2.813407778740e-02 	  -2.064346969128e-01 	  5.945534110069e-01 	 8.081441521645e-01 
3.300000000000e+01 	 1.221221983433e-01 	  7.472902536392e-03 	  5.713820457458e-01 	 8.538165092468e-01 
3.325000000000e+01 	 2.575569450855e-01 	  2.204735577106e-01 	  4.893852472305e-01 	 8.071868419647e-01 
3.350000000000e+01 	 3.668148219585e-01 	  4.110663235188e-01 	  3.799683749676e-01 	 6.984239816666e-01 
3.375000000000e+01 	 4.475411176682e-01 	  5.696855783463e-01 	  2.683182358742e-01 	 5.649918317795e-01 
3.400000000000e+01 	 5.009739398956e-01 	  6.935622692108e-01 	  1.629020571709e-01 	 4.251374006271e-01 
3.425000000000e+01 	 5.289921760559e-01 	  7.822542786598e-01 	  6.456159055233e-02 	 2.845101058483e-01 
3.450000000000e+01 	 5.332547426224e-01 	  8.358173370361e-01 	  -2.789845690131e-02 	 1.437999904156e-01 
3.475000000000e+01 	 5.150429606438e-01 	  8.541542887688e-01 	  -1.159153804183e-01 	 1.922994852066e-03 
3.500000000000e+01 	 4.752970933914e-01 	  8.367788195610e-01 	  -2.006439268589e-01 	 -1.428465247154e-01 
3.525000000000e+01 	 4.147210121155e-01 	  7.827309966087e-01 	  -2.826574742794e-01 	 -2.923524677753e-01 
3.550000000000e+01 	 3.339683413506e-01 	  6.906025409698e-01 	  -3.613637089729e-01 	 -4.478228092194e-01 
3.575000000000e+01 	 2.340391427279e-01 	  5.588195323944e-01 	  -4.334573745728e-01 	 -6.076949238777e-01 
3.600000000000e+01 	 1.172396540642e-01 	  3.867550492287e-01 	  -4.892911314964e-01 	 -7.611398696899e-01 
3.625000000000e+01 	 -1.060642302036e-02 	  1.782495975494e-01 	  -5.088916420937e-01 	 -8.759127855301e-01 
3.650000000000e+01 	 -1.372061669827e-01 	  -5.120134353638e-02 	  -4.735082685947e-01 	 -9.055299162865e-01 
3.675000000000e+01 	 -2.473605573177e-01 	  -2.745153605938e-01 	  -3.920427858829e-01 	 -8.393488526344e-01 
3.700000000000e+01 	 -3.332275748253e-01 	  -4.708757698536e-01 	  -2.934497296810e-01 	 -7.147620320320e-01 
3.725000000000e+01 	 -3.940854370594e-01 	  -6.318963766098e-01 	  -1.967210173607e-01 	 -5.691845417023e-01 
3.750000000000e+01 	 -4.315880835056e-01 	  -7.554680109024e-01 	  -1.070920974016e-01 	 -4.191605746746e-01 
3.775000000000e+01 	 -4.476314783096e-01 	  -8.414766192436e-01 	  -2.444651722908e-02 	 -2.693537771702e-01 
3.800000000000e+01 	 -4.438113272190e-01 	  -8.901448845863e-01 	  5.252993479371e-02 	 -1.199627071619e-01 
3.825000000000e+01 	 -4.213665127754e-01 	  -9.014579653740e-01 	  1.251246333122e-01 	 3.036437183619e-02 
3.850000000000e+01 	 -3.812490105629e-01 	  -8.749626874924e-01 	  1.942468583584e-01 	 1.834986507893e-01 
3.875000000000e+01 	 -3.242430686951e-01 	  -8.097086548805e-01 	  2.601712346077e-01 	 3.412958979607e-01 
3.900000000000e+01 	 -2.511633634567e-01 	  -7.043147683144e-01 	  3.219610750675e-01 	 5.046988725662e-01 
3.925000000000e+01 	 -1.632625162601e-01 	  -5.573592185974e-01 	  3.759766221046e-01 	 6.710295677185e-01 
3.950000000000e+01 	 -6.317505240440e-02 	  -3.687999844551e-01 	  4.126886427402e-01 	 8.262677192688e-01 
3.975000000000e+01 	 4.308180510998e-02 	  -1.442253738642e-01 	  4.147238731384e-01 	 9.327917695045e-01 
4.000000000000e+01 	 1.441868841648e-01 	  9.759590029716e-02 	  3.704341650009e-01 	 9.442808628082e-01 
4.025000000000e+01 	 2.282988876104e-01 	  3.279150724411e-01 	  2.931865453720e-01 	 8.591384291649e-01 
4.050000000000e+01 	 2.907801568508e-01 	  5.271651148796e-01 	  2.077808976173e-01 	 7.205955982208e-01 
4.075000000000e+01 	 3.321893215179e-01 	  6.882128715515e-01 	  1.273302733898e-01 	 5.648296475410e-01 
4.100000000000e+01 	 3.544452786446e-01 	  8.095799684525e-01 	  5.443844944239e-02 	 4.064726531506e-01 
4.125000000000e+01 	 3.594085574150e-01 	  8.914492130280e-01 	  -1.169933751225e-02 	 2.492168545723e-01 
4.150000000000e+01 	 3.485956192017e-01 	  9.341883659363e-01 	  -7.241360098124e-02 	 9.280692040920e-02 
4.175000000000e+01 	 3.232017457485e-01 	  9.378526210785e-01 	  -1.287988424301e-01 	 -6.433847546577e-02 
4.200000000000e+01 	 2.841961979866e-01 	  9.020190834999e-01 	  -1.814986765385e-01 	 -2.241945862770e-01 
4.225000000000e+01 	 2.324524223804e-01 	  8.257552981377e-01 	  -2.304854542017e-01 	 -3.885723352432e-01 
4.250000000000e+01 	 1.689534783363e-01 	  7.077329158783e-01 	  -2.745111584663e-01 	 -5.580269098282e-01 
4.275000000000e+01 	 9.519684314728e-02 	  5.467418432236e-01 	  -3.097539842129e-01 	 -7.285480499268e-01 
4.300000000000e+01 	 1.407648622990e-02 	  3.434588909149e-01 	  -3.273278772831e-01 	 -8.825834393501e-01 
4.325000000000e+01 	 -6.846709549427e-02 	  1.054501235485e-01 	  -3.135821223259e-01 	 -9.775896668434e-01 
4.350000000000e+01 	 -1.427145749331e-01 	  -1.453359425068e-01 	  -2.640450298786e-01 	 -9.695942401886e-01 
4.375000000000e+01 	 -2.004896104336e-01 	  -3.793469965458e-01 	  -1.944663226604e-01 	 -8.667292594910e-01 
4.400000000000e+01 	 -2.399477362633e-01 	  -5.787005424500e-01 	  -1.242252215743e-01 	 -7.163610458374e-01 
4.425000000000e+01 	 -2.626022100449e-01 	  -7.375274896622e-01 	  -6.112285703421e-02 	 -5.524697899818e-01 
4.450000000000e+01 	 -2.705091536045e-01 	  -8.549354672432e-01 	  -5.698850378394e-03 	 -3.876842856407e-01 
4.475000000000e+01 	 -2.654516398907e-01 	  -9.313696622849e-01 	  4.330617934465e-02 	 -2.247714102268e-01 
4.500000000000e+01 	 -2.488560676575e-01 	  -9.673211574554e-01 	  8.715298026800e-02 	 -6.306892633438e-02 
4.525000000000e+01 	 -2.218751460314e-01 	  -9.629040956497e-01 	  1.267086565495e-01 	 9.919216483831e-02 
4.550000000000e+01 	 -1.855017393827e-01 	  -9.177250862122e-01 	  1.623374670744e-01 	 2.640468478203e-01 
4.575000000000e+01 	 -1.407064199448e-01 	  -8.308807015419e-01 	  1.937151402235e-01 	 4.332009553909e-01 
4.600000000000e+01 	 -8.864417672157e-02 	  -7.011246085167e-01 	  2.193357944489e-01 	 6.067145466805e-01 
4.625000000000e+01 	 -3.103852644563e-02 	  -5.275233983994e-01 	  2.354015409946e-01 	 7.790257930756e-01 
4.650000000000e+01 	 2.905659377575e-02 	  -3.116117119789e-01 	  2.343062311411e-01 	 9.287889003754e-01 
4.675000000000e+01 	 8.611458539963e-02 	  -6.312896311283e-02 	  2.071832865477e-01 	 1.009361386299e+00 
4.700000000000e+01 	 1.326482295990e-01 	  1.930689960718e-01 	  1.562519371510e-01 	 9.812977313995e-01 
4.725000000000e+01 	 1.642405390739e-01 	  4.275199174881e-01 	  9.744342416525e-02 	 8.625093698502e-01 
4.750000000000e+01 	 1.813699305058e-01 	  6.243237257004e-01 	  4.394637420774e-02 	 7.026344537735e-01 
4.775000000000e+01 	 1.862137168646e-01 	  7.788372039795e-01 	  -1.020407304168e-03 	 5.327494740486e-01 
4.800000000000e+01 	 1.808597147465e-01 	  8.906984925270e-01 	  -3.846465796232e-02 	 3.634837865829e-01 
4.825000000000e+01 	 1.669813841581e-01 	  9.605790972710e-01 	  -6.990237534046e-02 	 1.967478394508e-01 
4.850000000000e+01 	 1.459085345268e-01 	  9.890724420547e-01 	  -9.645408391953e-02 	 3.152602165937e-02 
4.875000000000e+01 	 1.187543496490e-01 	  9.763421416283e-01 	  -1.187331676483e-01 	 -1.340936422348e-01 
4.900000000000e+01 	 8.654195070267e-02 	  9.220256209373e-01 	  -1.368177384138e-01 	 -3.021595776081e-01 
4.925000000000e+01 	 5.034547671676e-02 	  8.252623677254e-01 	  -1.501029133797e-01 	 -4.742096066475e-01 
4.950000000000e+01 	 1.149049401283e-02 	  6.849208474159e-01 	  -1.569018065929e-01 	 -6.496974825859e-01 
4.975000000000e+01 	 -2.810542657971e-02 	  5.004136562347e-01 	  -1.537069529295e-01 	 -8.212975263596e-01 
5.000000000000e+01 	 -6.536298245192e-02 	  2.742721140385e-01 	  -1.349311619997e-01 	 -9.637277722359e-01 
5.025000000000e+01 	 -9.557101130486e-02 	  1.854977011681e-02 	  -9.738382697105e-02 	 -1.027440547943e+00 
5.050000000000e+01 	 -1.140549033880e-01 	  -2.394481599331e-01 	  -4.893859848380e-02 	 -9.795128107071e-01 
5.075000000000e+01 	 -1.200403124094e-01 	  -4.712066352367e-01 	  -3.566691651940e-03 	 -8.470540046692e-01 
5.100000000000e+01 	 -1.158382445574e-01 	  -6.629751920700e-01 	  3.200287744403e-02 	 -6.801109910011e-01 
5.125000000000e+01 	 -1.040388718247e-01 	  -8.112621307373e-01 	  5.832254886627e-02 	 -5.063982009888e-01 
5.150000000000e+01 	 -8.667697012424e-02 	  -9.161742925644e-01 	  7.749179750681e-02 	 -3.346216082573e-01 
5.175000000000e+01 	 -6.529296934605e-02 	  -9.785729646683e-01 	  9.111899882555e-02 	 -1.659198105335e-01 
5.200000000000e+01 	 -4.111746698618e-02 	  -9.991341829300e-01 	  1.001285538077e-01 	 1.018464565277e-03 
5.225000000000e+01 	 -1.522869244218e-02 	  -9.780637025833e-01 	  1.048617511988e-01 	 1.682018190622e-01 
5.250000000000e+01 	 1.131340861320e-02 	  -9.150332808495e-01 	  1.051110103726e-01 	 3.376443982124e-01 
5.275000000000e+01 	 3.732681274414e-02 	  -8.092415332794e-01 	  1.000183373690e-01 	 5.106514692307e-01 
5.300000000000e+01 	 6.132257729769e-02 	  -6.597075462341e-01 	  8.781955391169e-02 	 6.859587430954e-01 
5.325000000000e+01 	 8.123658597469e-02 	  -4.662621617317e-01 	  6.563039124012e-02 	 8.542826771736e-01 
5.350000000000e+01 	 9.413777291775e-02 	  -2.325662225485e-01 	  3.070191107690e-02 	 9.864239096642e-01 
5.375000000000e+01 	 9.658754616976e-02 	  2.694980800152e-02 	  -1.387175731361e-02 	 1.031459450722e+00 
5.400000000000e+01 	 8.720189332962e-02 	  2.831634879112e-01 	  -5.608718097210e-02 	 9.646365046501e-01 
5.425000000000e+01 	 6.854395568371e-02 	  5.092680454254e-01 	  -8.584564179182e-02 	 8.211012482643e-01 
5.450000000000e+01 	 4.427907615900e-02 	  6.937141418457e-01 	  -1.026889830828e-01 	 6.495882868767e-01 
5.475000000000e+01 	 1.719946600497e-02 	  8.340622186661e-01 	  -1.101161092520e-01 	 4.742169976234e-01 
5.500000000000e+01 	 -1.077897846699e-02 	  9.308226108551e-01 	  -1.109278127551e-01 	 3.018980026245e-01 
5.525000000000e+01 	 -3.826443850994e-02 	  9.850112199783e-01 	  -1.066918522120e-01 	 1.330922544003e-01 
5.550000000000e+01 	 -6.412490457296e-02 	  9.973687529564e-01 	  -9.809403866529e-02 	 -3.374728560448e-02 
5.575000000000e+01 	 -8.731146156788e-02 	  9.681375622749e-01 	  -8.519287407398e-02 	 -2.006786912680e-01 
5.600000000000e+01 	 -1.067213416100e-01 	  8.970293998718e-01 	  -6.750302016735e-02 	 -3.696334660053e-01 
5.625000000000e+01 	 -1.210629716516e-01 	  7.833208441734e-01 	  -4.395378753543e-02 	 -5.416194200516e-01 
5.650000000000e+01 	 -1.286982446909e-01 	  6.262197494507e-01 	  -1.283772476017e-02 	 -7.145453691483e-01 
5.675000000000e+01 	 -1.274818480015e-01 	  4.260481894016e-01 	  2.770302817225e-02 	 -8.770095705986e-01 
5.700000000000e+01 	 -1.148467361927e-01 	  1.877149641514e-01 	  7.671684771776e-02 	 -9.961177706718e-01 
5.725000000000e+01 	 -8.912342041731e-02 	  -7.201069593430e-02 	  1.246040463448e-01 	 -1.021360516548e+00 
5.750000000000e+01 	 -5.254470929503e-02 	  -3.229652941227e-01 	  1.571342200041e-01 	 -9.373173117638e-01 
5.775000000000e+01 	 -1.055631041527e-02 	  -5.406693220139e-01 	  1.696187704802e-01 	 -7.855301499367e-01 
5.800000000000e+01 	 3.226467594504e-02 	  -7.157303094864e-01 	  1.673038452864e-01 	 -6.119530200958e-01 
5.825000000000e+01 	 7.309561222792e-02 	  -8.466458320618e-01 	  1.558476239443e-01 	 -4.370682239532e-01 
5.850000000000e+01 	 1.101884841919e-01 	  -9.342644214630e-01 	  1.384266316891e-01 	 -2.661540508270e-01 
5.875000000000e+01 	 1.423089206219e-01 	  -9.797228574753e-01 	  1.164633110166e-01 	 -9.909285604954e-02 
5.900000000000e+01 	 1.684201359749e-01 	  -9.838109016418e-01 	  9.037466347218e-02 	 6.583768874407e-02 
5.925000000000e+01 	 1.874962449074e-01 	  -9.468040466309e-01 	  5.993316695094e-02 	 2.306979596615e-01 
5.950000000000e+01 	 1.983867138624e-01 	  -8.684619069099e-01 	  2.439160086215e-02 	 3.972886502743e-01 
5.975000000000e+01 	 1.996920406818e-01 	  -7.481597065926e-01 	  -1.747878827155e-02 	 5.662563443184e-01 
6.000000000000e+01 	 1.896473169327e-01 	  -5.853337049484e-01 	  -6.716093420982e-02 	 7.345821261406e-01 
6.025000000000e+01 	 1.661115735769e-01 	  -3.808686137199e-01 	  -1.250116527081e-01 	 8.886376023293e-01 
6.050000000000e+01 	 1.271414905787e-01 	  -1.410149037838e-01 	  -1.855280995369e-01 	 9.922977089882e-01 
6.075000000000e+01 	 7.334752380848e-02 	  1.152802407742e-01 	  -2.328527122736e-01 	 9.973978996277e-01 
6.100000000000e+01 	 1.071513444185e-02 	  3.576840460300e-01 	  -2.526621818542e-01 	 8.984261155128e-01 
6.125000000000e+01 	 -5.298356711864e-02 	  5.644932985306e-01 	  -2.467323988676e-01 	 7.413391470909e-01 
6.150000000000e+01 	 -1.126510649920e-01 	  7.283536195755e-01 	  -2.251715958118e-01 	 5.681664347649e-01 
6.175000000000e+01 	 -1.655693650246e-01 	  8.485765457153e-01 	  -1.950830221176e-01 	 3.958635628223e-01 
6.200000000000e+01 	 -2.101925760508e-01 	  9.262854456902e-01 	  -1.597549021244e-01 	 2.282603979111e-01 
6.225000000000e+01 	 -2.454468160868e-01 	  9.627067446709e-01 	  -1.203849166632e-01 	 6.476096063852e-02 
6.250000000000e+01 	 -2.703850269318e-01 	  9.586659073830e-01 	  -7.710222899914e-02 	 -9.647253155708e-02 
6.275000000000e+01 	 -2.839979231358e-01 	  9.144704937935e-01 	  -2.939726412296e-02 	 -2.574563622475e-01 
6.300000000000e+01 	 -2.850836515427e-01 	  8.299377560616e-01 	  2.371493540704e-02 	 -4.198133349419e-01 
6.325000000000e+01 	 -2.721404433250e-01 	  7.045638561249e-01 	  8.355094492435e-02 	 -5.837683677673e-01 
6.350000000000e+01 	 -2.433081716299e-01 	  5.380536317825e-01 	  1.511644721031e-01 	 -7.452877163887e-01 
6.375000000000e+01 	 -1.965582072735e-01 	  3.319200277328e-01 	  2.248690873384e-01 	 -8.884826302528e-01 
6.400000000000e+01 	 -1.308736354113e-01 	  9.381231665611e-02 	  2.938436567783e-01 	 -9.747276902199e-01 
6.425000000000e+01 	 -4.963637888432e-02 	  -1.554438173771e-01 	  3.367307186127e-01 	 -9.601284265518e-01 
6.450000000000e+01 	 3.749172389507e-02 	  -3.862518966198e-01 	  3.413090705872e-01 	 -8.490211963654e-01 
6.475000000000e+01 	 1.210181564093e-01 	  -5.799543857574e-01 	  3.163296878338e-01 	 -6.896221637726e-01 
6.500000000000e+01 	 1.956565678120e-01 	  -7.310629487038e-01 	  2.757548391819e-01 	 -5.192474126816e-01 
6.525000000000e+01 	 2.588955760002e-01 	  -8.395780920982e-01 	  2.275126129389e-01 	 -3.515495657921e-01 
6.550000000000e+01 	 3.094128668308e-01 	  -9.068377017975e-01 	  1.747954785824e-01 	 -1.891038268805e-01 
6.575000000000e+01 	 3.462933003902e-01 	  -9.341299533844e-01 	  1.185193210840e-01 	 -3.093469142914e-02 
6.600000000000e+01 	 3.686725199223e-01 	  -9.223050475121e-01 	  5.851653218269e-02 	 1.248530298471e-01 
6.625000000000e+01 	 3.755515515804e-01 	  -8.717034459114e-01 	  -5.993520841002e-03 	 2.801866829395e-01 
6.650000000000e+01 	 3.656757473946e-01 	  -7.822116613388e-01 	  -7.620073854923e-02 	 4.364661574364e-01 
6.675000000000e+01 	 3.374511897564e-01 	  -6.534703373909e-01 	  -1.534223556519e-01 	 5.934397578239e-01 
6.700000000000e+01 	 2.889645695686e-01 	  -4.854917824268e-01 	  -2.380387932062e-01 	 7.459941506386e-01 
6.725000000000e+01 	 2.184317857027e-01 	  -2.804732620716e-01 	  -3.257214128971e-01 	 8.760453462601e-01 
6.750000000000e+01 	 1.261038631201e-01 	  -4.746910929680e-02 	  -3.997330367565e-01 	 9.434680938721e-01 
6.775000000000e+01 	 1.856526732445e-02 	  1.912607848644e-01 	  -4.344764947891e-01 	 9.103927016258e-01 
6.800000000000e+01 	 -9.113438427448e-02 	  4.077272415161e-01 	  -4.219105243683e-01 	 7.903100848198e-01 
6.825000000000e+01 	 -1.923899948597e-01 	  5.864158272743e-01 	  -3.777221441269e-01 	 6.315414905548e-01 
6.850000000000e+01 	 -2.799954414368e-01 	  7.234979867935e-01 	  -3.186575174332e-01 	 4.662507772446e-01 
6.875000000000e+01 	 -3.517187237740e-01 	  8.195412158966e-01 	  -2.529527842999e-01 	 3.050882220268e-01 
6.900000000000e+01 	 -4.064718186855e-01 	  8.760421276093e-01 	  -1.835478246212e-01 	 1.495690941811e-01 